V -t * -v 1.0a5 -a 0
A -t * -n 1 -p 0 -o 0x7fffffff -c 30 -a 1
A -t * -h 1 -m 1073741823 -s 0
n -t * -a 0 -s 0 -S UP -v circle -c black -i black
n -t * -a 1 -s 1 -S UP -v circle -c black -i black
n -t * -a 2 -s 2 -S UP -v circle -c black -i black
l -t * -s 0 -d 1 -S UP -r 1000000 -D 0.01 -c black
l -t * -s 1 -d 2 -S UP -r 1000000 -D 0.01 -c black
+ -t 0.2 -s 0 -d 1 -p cbr -e 512 -c 0 -i 0 -a 0 -x {0.0 2.0 0 ------- null}
- -t 0.2 -s 0 -d 1 -p cbr -e 512 -c 0 -i 0 -a 0 -x {0.0 2.0 0 ------- null}
h -t 0.2 -s 0 -d 1 -p cbr -e 512 -c 0 -i 0 -a 0 -x {0.0 2.0 -1 ------- null}
+ -t 0.205 -s 0 -d 1 -p cbr -e 512 -c 0 -i 1 -a 0 -x {0.0 2.0 1 ------- null}
- -t 0.205 -s 0 -d 1 -p cbr -e 512 -c 0 -i 1 -a 0 -x {0.0 2.0 1 ------- null}
h -t 0.205 -s 0 -d 1 -p cbr -e 512 -c 0 -i 1 -a 0 -x {0.0 2.0 -1 ------- null}
+ -t 0.21 -s 0 -d 1 -p cbr -e 512 -c 0 -i 2 -a 0 -x {0.0 2.0 2 ------- null}
- -t 0.21 -s 0 -d 1 -p cbr -e 512 -c 0 -i 2 -a 0 -x {0.0 2.0 2 ------- null}
h -t 0.21 -s 0 -d 1 -p cbr -e 512 -c 0 -i 2 -a 0 -x {0.0 2.0 -1 ------- null}
r -t 0.214096 -s 0 -d 1 -p cbr -e 512 -c 0 -i 0 -a 0 -x {0.0 2.0 0 ------- null}
+ -t 0.214096 -s 1 -d 2 -p cbr -e 512 -c 0 -i 0 -a 0 -x {0.0 2.0 0 ------- null}
- -t 0.214096 -s 1 -d 2 -p cbr -e 512 -c 0 -i 0 -a 0 -x {0.0 2.0 0 ------- null}
h -t 0.214096 -s 1 -d 2 -p cbr -e 512 -c 0 -i 0 -a 0 -x {0.0 2.0 -1 ------- null}
+ -t 0.215 -s 0 -d 1 -p cbr -e 512 -c 0 -i 3 -a 0 -x {0.0 2.0 3 ------- null}
- -t 0.215 -s 0 -d 1 -p cbr -e 512 -c 0 -i 3 -a 0 -x {0.0 2.0 3 ------- null}
h -t 0.215 -s 0 -d 1 -p cbr -e 512 -c 0 -i 3 -a 0 -x {0.0 2.0 -1 ------- null}
r -t 0.219096 -s 0 -d 1 -p cbr -e 512 -c 0 -i 1 -a 0 -x {0.0 2.0 1 ------- null}
+ -t 0.219096 -s 1 -d 2 -p cbr -e 512 -c 0 -i 1 -a 0 -x {0.0 2.0 1 ------- null}
- -t 0.219096 -s 1 -d 2 -p cbr -e 512 -c 0 -i 1 -a 0 -x {0.0 2.0 1 ------- null}
h -t 0.219096 -s 1 -d 2 -p cbr -e 512 -c 0 -i 1 -a 0 -x {0.0 2.0 -1 ------- null}
+ -t 0.22 -s 0 -d 1 -p cbr -e 512 -c 0 -i 4 -a 0 -x {0.0 2.0 4 ------- null}
- -t 0.22 -s 0 -d 1 -p cbr -e 512 -c 0 -i 4 -a 0 -x {0.0 2.0 4 ------- null}
h -t 0.22 -s 0 -d 1 -p cbr -e 512 -c 0 -i 4 -a 0 -x {0.0 2.0 -1 ------- null}
r -t 0.224096 -s 0 -d 1 -p cbr -e 512 -c 0 -i 2 -a 0 -x {0.0 2.0 2 ------- null}
+ -t 0.224096 -s 1 -d 2 -p cbr -e 512 -c 0 -i 2 -a 0 -x {0.0 2.0 2 ------- null}
- -t 0.224096 -s 1 -d 2 -p cbr -e 512 -c 0 -i 2 -a 0 -x {0.0 2.0 2 ------- null}
h -t 0.224096 -s 1 -d 2 -p cbr -e 512 -c 0 -i 2 -a 0 -x {0.0 2.0 -1 ------- null}
+ -t 0.225 -s 0 -d 1 -p cbr -e 512 -c 0 -i 5 -a 0 -x {0.0 2.0 5 ------- null}
- -t 0.225 -s 0 -d 1 -p cbr -e 512 -c 0 -i 5 -a 0 -x {0.0 2.0 5 ------- null}
h -t 0.225 -s 0 -d 1 -p cbr -e 512 -c 0 -i 5 -a 0 -x {0.0 2.0 -1 ------- null}
r -t 0.228192 -s 1 -d 2 -p cbr -e 512 -c 0 -i 0 -a 0 -x {0.0 2.0 0 ------- null}
r -t 0.229096 -s 0 -d 1 -p cbr -e 512 -c 0 -i 3 -a 0 -x {0.0 2.0 3 ------- null}
+ -t 0.229096 -s 1 -d 2 -p cbr -e 512 -c 0 -i 3 -a 0 -x {0.0 2.0 3 ------- null}
- -t 0.229096 -s 1 -d 2 -p cbr -e 512 -c 0 -i 3 -a 0 -x {0.0 2.0 3 ------- null}
h -t 0.229096 -s 1 -d 2 -p cbr -e 512 -c 0 -i 3 -a 0 -x {0.0 2.0 -1 ------- null}
+ -t 0.23 -s 0 -d 1 -p cbr -e 512 -c 0 -i 6 -a 0 -x {0.0 2.0 6 ------- null}
- -t 0.23 -s 0 -d 1 -p cbr -e 512 -c 0 -i 6 -a 0 -x {0.0 2.0 6 ------- null}
h -t 0.23 -s 0 -d 1 -p cbr -e 512 -c 0 -i 6 -a 0 -x {0.0 2.0 -1 ------- null}
r -t 0.233192 -s 1 -d 2 -p cbr -e 512 -c 0 -i 1 -a 0 -x {0.0 2.0 1 ------- null}
r -t 0.234096 -s 0 -d 1 -p cbr -e 512 -c 0 -i 4 -a 0 -x {0.0 2.0 4 ------- null}
+ -t 0.234096 -s 1 -d 2 -p cbr -e 512 -c 0 -i 4 -a 0 -x {0.0 2.0 4 ------- null}
- -t 0.234096 -s 1 -d 2 -p cbr -e 512 -c 0 -i 4 -a 0 -x {0.0 2.0 4 ------- null}
h -t 0.234096 -s 1 -d 2 -p cbr -e 512 -c 0 -i 4 -a 0 -x {0.0 2.0 -1 ------- null}
+ -t 0.235 -s 0 -d 1 -p cbr -e 512 -c 0 -i 7 -a 0 -x {0.0 2.0 7 ------- null}
- -t 0.235 -s 0 -d 1 -p cbr -e 512 -c 0 -i 7 -a 0 -x {0.0 2.0 7 ------- null}
h -t 0.235 -s 0 -d 1 -p cbr -e 512 -c 0 -i 7 -a 0 -x {0.0 2.0 -1 ------- null}
r -t 0.238192 -s 1 -d 2 -p cbr -e 512 -c 0 -i 2 -a 0 -x {0.0 2.0 2 ------- null}
r -t 0.239096 -s 0 -d 1 -p cbr -e 512 -c 0 -i 5 -a 0 -x {0.0 2.0 5 ------- null}
+ -t 0.239096 -s 1 -d 2 -p cbr -e 512 -c 0 -i 5 -a 0 -x {0.0 2.0 5 ------- null}
- -t 0.239096 -s 1 -d 2 -p cbr -e 512 -c 0 -i 5 -a 0 -x {0.0 2.0 5 ------- null}
h -t 0.239096 -s 1 -d 2 -p cbr -e 512 -c 0 -i 5 -a 0 -x {0.0 2.0 -1 ------- null}
+ -t 0.24 -s 0 -d 1 -p cbr -e 512 -c 0 -i 8 -a 0 -x {0.0 2.0 8 ------- null}
- -t 0.24 -s 0 -d 1 -p cbr -e 512 -c 0 -i 8 -a 0 -x {0.0 2.0 8 ------- null}
h -t 0.24 -s 0 -d 1 -p cbr -e 512 -c 0 -i 8 -a 0 -x {0.0 2.0 -1 ------- null}
r -t 0.243192 -s 1 -d 2 -p cbr -e 512 -c 0 -i 3 -a 0 -x {0.0 2.0 3 ------- null}
r -t 0.244096 -s 0 -d 1 -p cbr -e 512 -c 0 -i 6 -a 0 -x {0.0 2.0 6 ------- null}
+ -t 0.244096 -s 1 -d 2 -p cbr -e 512 -c 0 -i 6 -a 0 -x {0.0 2.0 6 ------- null}
- -t 0.244096 -s 1 -d 2 -p cbr -e 512 -c 0 -i 6 -a 0 -x {0.0 2.0 6 ------- null}
h -t 0.244096 -s 1 -d 2 -p cbr -e 512 -c 0 -i 6 -a 0 -x {0.0 2.0 -1 ------- null}
+ -t 0.245 -s 0 -d 1 -p cbr -e 512 -c 0 -i 9 -a 0 -x {0.0 2.0 9 ------- null}
- -t 0.245 -s 0 -d 1 -p cbr -e 512 -c 0 -i 9 -a 0 -x {0.0 2.0 9 ------- null}
h -t 0.245 -s 0 -d 1 -p cbr -e 512 -c 0 -i 9 -a 0 -x {0.0 2.0 -1 ------- null}
r -t 0.248192 -s 1 -d 2 -p cbr -e 512 -c 0 -i 4 -a 0 -x {0.0 2.0 4 ------- null}
r -t 0.249096 -s 0 -d 1 -p cbr -e 512 -c 0 -i 7 -a 0 -x {0.0 2.0 7 ------- null}
+ -t 0.249096 -s 1 -d 2 -p cbr -e 512 -c 0 -i 7 -a 0 -x {0.0 2.0 7 ------- null}
- -t 0.249096 -s 1 -d 2 -p cbr -e 512 -c 0 -i 7 -a 0 -x {0.0 2.0 7 ------- null}
h -t 0.249096 -s 1 -d 2 -p cbr -e 512 -c 0 -i 7 -a 0 -x {0.0 2.0 -1 ------- null}
+ -t 0.25 -s 0 -d 1 -p cbr -e 512 -c 0 -i 10 -a 0 -x {0.0 2.0 10 ------- null}
- -t 0.25 -s 0 -d 1 -p cbr -e 512 -c 0 -i 10 -a 0 -x {0.0 2.0 10 ------- null}
h -t 0.25 -s 0 -d 1 -p cbr -e 512 -c 0 -i 10 -a 0 -x {0.0 2.0 -1 ------- null}
r -t 0.253192 -s 1 -d 2 -p cbr -e 512 -c 0 -i 5 -a 0 -x {0.0 2.0 5 ------- null}
r -t 0.254096 -s 0 -d 1 -p cbr -e 512 -c 0 -i 8 -a 0 -x {0.0 2.0 8 ------- null}
+ -t 0.254096 -s 1 -d 2 -p cbr -e 512 -c 0 -i 8 -a 0 -x {0.0 2.0 8 ------- null}
- -t 0.254096 -s 1 -d 2 -p cbr -e 512 -c 0 -i 8 -a 0 -x {0.0 2.0 8 ------- null}
h -t 0.254096 -s 1 -d 2 -p cbr -e 512 -c 0 -i 8 -a 0 -x {0.0 2.0 -1 ------- null}
+ -t 0.255 -s 0 -d 1 -p cbr -e 512 -c 0 -i 11 -a 0 -x {0.0 2.0 11 ------- null}
- -t 0.255 -s 0 -d 1 -p cbr -e 512 -c 0 -i 11 -a 0 -x {0.0 2.0 11 ------- null}
h -t 0.255 -s 0 -d 1 -p cbr -e 512 -c 0 -i 11 -a 0 -x {0.0 2.0 -1 ------- null}
r -t 0.258192 -s 1 -d 2 -p cbr -e 512 -c 0 -i 6 -a 0 -x {0.0 2.0 6 ------- null}
r -t 0.259096 -s 0 -d 1 -p cbr -e 512 -c 0 -i 9 -a 0 -x {0.0 2.0 9 ------- null}
+ -t 0.259096 -s 1 -d 2 -p cbr -e 512 -c 0 -i 9 -a 0 -x {0.0 2.0 9 ------- null}
- -t 0.259096 -s 1 -d 2 -p cbr -e 512 -c 0 -i 9 -a 0 -x {0.0 2.0 9 ------- null}
h -t 0.259096 -s 1 -d 2 -p cbr -e 512 -c 0 -i 9 -a 0 -x {0.0 2.0 -1 ------- null}
+ -t 0.26 -s 0 -d 1 -p cbr -e 512 -c 0 -i 12 -a 0 -x {0.0 2.0 12 ------- null}
- -t 0.26 -s 0 -d 1 -p cbr -e 512 -c 0 -i 12 -a 0 -x {0.0 2.0 12 ------- null}
h -t 0.26 -s 0 -d 1 -p cbr -e 512 -c 0 -i 12 -a 0 -x {0.0 2.0 -1 ------- null}
r -t 0.263192 -s 1 -d 2 -p cbr -e 512 -c 0 -i 7 -a 0 -x {0.0 2.0 7 ------- null}
r -t 0.264096 -s 0 -d 1 -p cbr -e 512 -c 0 -i 10 -a 0 -x {0.0 2.0 10 ------- null}
+ -t 0.264096 -s 1 -d 2 -p cbr -e 512 -c 0 -i 10 -a 0 -x {0.0 2.0 10 ------- null}
- -t 0.264096 -s 1 -d 2 -p cbr -e 512 -c 0 -i 10 -a 0 -x {0.0 2.0 10 ------- null}
h -t 0.264096 -s 1 -d 2 -p cbr -e 512 -c 0 -i 10 -a 0 -x {0.0 2.0 -1 ------- null}
+ -t 0.265 -s 0 -d 1 -p cbr -e 512 -c 0 -i 13 -a 0 -x {0.0 2.0 13 ------- null}
- -t 0.265 -s 0 -d 1 -p cbr -e 512 -c 0 -i 13 -a 0 -x {0.0 2.0 13 ------- null}
h -t 0.265 -s 0 -d 1 -p cbr -e 512 -c 0 -i 13 -a 0 -x {0.0 2.0 -1 ------- null}
r -t 0.268192 -s 1 -d 2 -p cbr -e 512 -c 0 -i 8 -a 0 -x {0.0 2.0 8 ------- null}
r -t 0.269096 -s 0 -d 1 -p cbr -e 512 -c 0 -i 11 -a 0 -x {0.0 2.0 11 ------- null}
+ -t 0.269096 -s 1 -d 2 -p cbr -e 512 -c 0 -i 11 -a 0 -x {0.0 2.0 11 ------- null}
- -t 0.269096 -s 1 -d 2 -p cbr -e 512 -c 0 -i 11 -a 0 -x {0.0 2.0 11 ------- null}
h -t 0.269096 -s 1 -d 2 -p cbr -e 512 -c 0 -i 11 -a 0 -x {0.0 2.0 -1 ------- null}
+ -t 0.27 -s 0 -d 1 -p cbr -e 512 -c 0 -i 14 -a 0 -x {0.0 2.0 14 ------- null}
- -t 0.27 -s 0 -d 1 -p cbr -e 512 -c 0 -i 14 -a 0 -x {0.0 2.0 14 ------- null}
h -t 0.27 -s 0 -d 1 -p cbr -e 512 -c 0 -i 14 -a 0 -x {0.0 2.0 -1 ------- null}
r -t 0.273192 -s 1 -d 2 -p cbr -e 512 -c 0 -i 9 -a 0 -x {0.0 2.0 9 ------- null}
r -t 0.274096 -s 0 -d 1 -p cbr -e 512 -c 0 -i 12 -a 0 -x {0.0 2.0 12 ------- null}
+ -t 0.274096 -s 1 -d 2 -p cbr -e 512 -c 0 -i 12 -a 0 -x {0.0 2.0 12 ------- null}
- -t 0.274096 -s 1 -d 2 -p cbr -e 512 -c 0 -i 12 -a 0 -x {0.0 2.0 12 ------- null}
h -t 0.274096 -s 1 -d 2 -p cbr -e 512 -c 0 -i 12 -a 0 -x {0.0 2.0 -1 ------- null}
+ -t 0.275 -s 0 -d 1 -p cbr -e 512 -c 0 -i 15 -a 0 -x {0.0 2.0 15 ------- null}
- -t 0.275 -s 0 -d 1 -p cbr -e 512 -c 0 -i 15 -a 0 -x {0.0 2.0 15 ------- null}
h -t 0.275 -s 0 -d 1 -p cbr -e 512 -c 0 -i 15 -a 0 -x {0.0 2.0 -1 ------- null}
r -t 0.278192 -s 1 -d 2 -p cbr -e 512 -c 0 -i 10 -a 0 -x {0.0 2.0 10 ------- null}
r -t 0.279096 -s 0 -d 1 -p cbr -e 512 -c 0 -i 13 -a 0 -x {0.0 2.0 13 ------- null}
+ -t 0.279096 -s 1 -d 2 -p cbr -e 512 -c 0 -i 13 -a 0 -x {0.0 2.0 13 ------- null}
- -t 0.279096 -s 1 -d 2 -p cbr -e 512 -c 0 -i 13 -a 0 -x {0.0 2.0 13 ------- null}
h -t 0.279096 -s 1 -d 2 -p cbr -e 512 -c 0 -i 13 -a 0 -x {0.0 2.0 -1 ------- null}
+ -t 0.28 -s 0 -d 1 -p cbr -e 512 -c 0 -i 16 -a 0 -x {0.0 2.0 16 ------- null}
- -t 0.28 -s 0 -d 1 -p cbr -e 512 -c 0 -i 16 -a 0 -x {0.0 2.0 16 ------- null}
h -t 0.28 -s 0 -d 1 -p cbr -e 512 -c 0 -i 16 -a 0 -x {0.0 2.0 -1 ------- null}
r -t 0.283192 -s 1 -d 2 -p cbr -e 512 -c 0 -i 11 -a 0 -x {0.0 2.0 11 ------- null}
r -t 0.284096 -s 0 -d 1 -p cbr -e 512 -c 0 -i 14 -a 0 -x {0.0 2.0 14 ------- null}
+ -t 0.284096 -s 1 -d 2 -p cbr -e 512 -c 0 -i 14 -a 0 -x {0.0 2.0 14 ------- null}
- -t 0.284096 -s 1 -d 2 -p cbr -e 512 -c 0 -i 14 -a 0 -x {0.0 2.0 14 ------- null}
h -t 0.284096 -s 1 -d 2 -p cbr -e 512 -c 0 -i 14 -a 0 -x {0.0 2.0 -1 ------- null}
+ -t 0.285 -s 0 -d 1 -p cbr -e 512 -c 0 -i 17 -a 0 -x {0.0 2.0 17 ------- null}
- -t 0.285 -s 0 -d 1 -p cbr -e 512 -c 0 -i 17 -a 0 -x {0.0 2.0 17 ------- null}
h -t 0.285 -s 0 -d 1 -p cbr -e 512 -c 0 -i 17 -a 0 -x {0.0 2.0 -1 ------- null}
r -t 0.288192 -s 1 -d 2 -p cbr -e 512 -c 0 -i 12 -a 0 -x {0.0 2.0 12 ------- null}
r -t 0.289096 -s 0 -d 1 -p cbr -e 512 -c 0 -i 15 -a 0 -x {0.0 2.0 15 ------- null}
+ -t 0.289096 -s 1 -d 2 -p cbr -e 512 -c 0 -i 15 -a 0 -x {0.0 2.0 15 ------- null}
- -t 0.289096 -s 1 -d 2 -p cbr -e 512 -c 0 -i 15 -a 0 -x {0.0 2.0 15 ------- null}
h -t 0.289096 -s 1 -d 2 -p cbr -e 512 -c 0 -i 15 -a 0 -x {0.0 2.0 -1 ------- null}
+ -t 0.29 -s 0 -d 1 -p cbr -e 512 -c 0 -i 18 -a 0 -x {0.0 2.0 18 ------- null}
- -t 0.29 -s 0 -d 1 -p cbr -e 512 -c 0 -i 18 -a 0 -x {0.0 2.0 18 ------- null}
h -t 0.29 -s 0 -d 1 -p cbr -e 512 -c 0 -i 18 -a 0 -x {0.0 2.0 -1 ------- null}
r -t 0.293192 -s 1 -d 2 -p cbr -e 512 -c 0 -i 13 -a 0 -x {0.0 2.0 13 ------- null}
r -t 0.294096 -s 0 -d 1 -p cbr -e 512 -c 0 -i 16 -a 0 -x {0.0 2.0 16 ------- null}
+ -t 0.294096 -s 1 -d 2 -p cbr -e 512 -c 0 -i 16 -a 0 -x {0.0 2.0 16 ------- null}
- -t 0.294096 -s 1 -d 2 -p cbr -e 512 -c 0 -i 16 -a 0 -x {0.0 2.0 16 ------- null}
h -t 0.294096 -s 1 -d 2 -p cbr -e 512 -c 0 -i 16 -a 0 -x {0.0 2.0 -1 ------- null}
+ -t 0.295 -s 0 -d 1 -p cbr -e 512 -c 0 -i 19 -a 0 -x {0.0 2.0 19 ------- null}
- -t 0.295 -s 0 -d 1 -p cbr -e 512 -c 0 -i 19 -a 0 -x {0.0 2.0 19 ------- null}
h -t 0.295 -s 0 -d 1 -p cbr -e 512 -c 0 -i 19 -a 0 -x {0.0 2.0 -1 ------- null}
r -t 0.298192 -s 1 -d 2 -p cbr -e 512 -c 0 -i 14 -a 0 -x {0.0 2.0 14 ------- null}
r -t 0.299096 -s 0 -d 1 -p cbr -e 512 -c 0 -i 17 -a 0 -x {0.0 2.0 17 ------- null}
+ -t 0.299096 -s 1 -d 2 -p cbr -e 512 -c 0 -i 17 -a 0 -x {0.0 2.0 17 ------- null}
- -t 0.299096 -s 1 -d 2 -p cbr -e 512 -c 0 -i 17 -a 0 -x {0.0 2.0 17 ------- null}
h -t 0.299096 -s 1 -d 2 -p cbr -e 512 -c 0 -i 17 -a 0 -x {0.0 2.0 -1 ------- null}
+ -t 0.3 -s 0 -d 1 -p cbr -e 512 -c 0 -i 20 -a 0 -x {0.0 2.0 20 ------- null}
- -t 0.3 -s 0 -d 1 -p cbr -e 512 -c 0 -i 20 -a 0 -x {0.0 2.0 20 ------- null}
h -t 0.3 -s 0 -d 1 -p cbr -e 512 -c 0 -i 20 -a 0 -x {0.0 2.0 -1 ------- null}
r -t 0.303192 -s 1 -d 2 -p cbr -e 512 -c 0 -i 15 -a 0 -x {0.0 2.0 15 ------- null}
r -t 0.304096 -s 0 -d 1 -p cbr -e 512 -c 0 -i 18 -a 0 -x {0.0 2.0 18 ------- null}
+ -t 0.304096 -s 1 -d 2 -p cbr -e 512 -c 0 -i 18 -a 0 -x {0.0 2.0 18 ------- null}
- -t 0.304096 -s 1 -d 2 -p cbr -e 512 -c 0 -i 18 -a 0 -x {0.0 2.0 18 ------- null}
h -t 0.304096 -s 1 -d 2 -p cbr -e 512 -c 0 -i 18 -a 0 -x {0.0 2.0 -1 ------- null}
+ -t 0.305 -s 0 -d 1 -p cbr -e 512 -c 0 -i 21 -a 0 -x {0.0 2.0 21 ------- null}
- -t 0.305 -s 0 -d 1 -p cbr -e 512 -c 0 -i 21 -a 0 -x {0.0 2.0 21 ------- null}
h -t 0.305 -s 0 -d 1 -p cbr -e 512 -c 0 -i 21 -a 0 -x {0.0 2.0 -1 ------- null}
r -t 0.308192 -s 1 -d 2 -p cbr -e 512 -c 0 -i 16 -a 0 -x {0.0 2.0 16 ------- null}
r -t 0.309096 -s 0 -d 1 -p cbr -e 512 -c 0 -i 19 -a 0 -x {0.0 2.0 19 ------- null}
+ -t 0.309096 -s 1 -d 2 -p cbr -e 512 -c 0 -i 19 -a 0 -x {0.0 2.0 19 ------- null}
- -t 0.309096 -s 1 -d 2 -p cbr -e 512 -c 0 -i 19 -a 0 -x {0.0 2.0 19 ------- null}
h -t 0.309096 -s 1 -d 2 -p cbr -e 512 -c 0 -i 19 -a 0 -x {0.0 2.0 -1 ------- null}
+ -t 0.31 -s 0 -d 1 -p cbr -e 512 -c 0 -i 22 -a 0 -x {0.0 2.0 22 ------- null}
- -t 0.31 -s 0 -d 1 -p cbr -e 512 -c 0 -i 22 -a 0 -x {0.0 2.0 22 ------- null}
h -t 0.31 -s 0 -d 1 -p cbr -e 512 -c 0 -i 22 -a 0 -x {0.0 2.0 -1 ------- null}
r -t 0.313192 -s 1 -d 2 -p cbr -e 512 -c 0 -i 17 -a 0 -x {0.0 2.0 17 ------- null}
r -t 0.314096 -s 0 -d 1 -p cbr -e 512 -c 0 -i 20 -a 0 -x {0.0 2.0 20 ------- null}
+ -t 0.314096 -s 1 -d 2 -p cbr -e 512 -c 0 -i 20 -a 0 -x {0.0 2.0 20 ------- null}
- -t 0.314096 -s 1 -d 2 -p cbr -e 512 -c 0 -i 20 -a 0 -x {0.0 2.0 20 ------- null}
h -t 0.314096 -s 1 -d 2 -p cbr -e 512 -c 0 -i 20 -a 0 -x {0.0 2.0 -1 ------- null}
+ -t 0.315 -s 0 -d 1 -p cbr -e 512 -c 0 -i 23 -a 0 -x {0.0 2.0 23 ------- null}
- -t 0.315 -s 0 -d 1 -p cbr -e 512 -c 0 -i 23 -a 0 -x {0.0 2.0 23 ------- null}
h -t 0.315 -s 0 -d 1 -p cbr -e 512 -c 0 -i 23 -a 0 -x {0.0 2.0 -1 ------- null}
r -t 0.318192 -s 1 -d 2 -p cbr -e 512 -c 0 -i 18 -a 0 -x {0.0 2.0 18 ------- null}
r -t 0.319096 -s 0 -d 1 -p cbr -e 512 -c 0 -i 21 -a 0 -x {0.0 2.0 21 ------- null}
+ -t 0.319096 -s 1 -d 2 -p cbr -e 512 -c 0 -i 21 -a 0 -x {0.0 2.0 21 ------- null}
- -t 0.319096 -s 1 -d 2 -p cbr -e 512 -c 0 -i 21 -a 0 -x {0.0 2.0 21 ------- null}
h -t 0.319096 -s 1 -d 2 -p cbr -e 512 -c 0 -i 21 -a 0 -x {0.0 2.0 -1 ------- null}
+ -t 0.32 -s 0 -d 1 -p cbr -e 512 -c 0 -i 24 -a 0 -x {0.0 2.0 24 ------- null}
- -t 0.32 -s 0 -d 1 -p cbr -e 512 -c 0 -i 24 -a 0 -x {0.0 2.0 24 ------- null}
h -t 0.32 -s 0 -d 1 -p cbr -e 512 -c 0 -i 24 -a 0 -x {0.0 2.0 -1 ------- null}
r -t 0.323192 -s 1 -d 2 -p cbr -e 512 -c 0 -i 19 -a 0 -x {0.0 2.0 19 ------- null}
r -t 0.324096 -s 0 -d 1 -p cbr -e 512 -c 0 -i 22 -a 0 -x {0.0 2.0 22 ------- null}
+ -t 0.324096 -s 1 -d 2 -p cbr -e 512 -c 0 -i 22 -a 0 -x {0.0 2.0 22 ------- null}
- -t 0.324096 -s 1 -d 2 -p cbr -e 512 -c 0 -i 22 -a 0 -x {0.0 2.0 22 ------- null}
h -t 0.324096 -s 1 -d 2 -p cbr -e 512 -c 0 -i 22 -a 0 -x {0.0 2.0 -1 ------- null}
+ -t 0.325 -s 0 -d 1 -p cbr -e 512 -c 0 -i 25 -a 0 -x {0.0 2.0 25 ------- null}
- -t 0.325 -s 0 -d 1 -p cbr -e 512 -c 0 -i 25 -a 0 -x {0.0 2.0 25 ------- null}
h -t 0.325 -s 0 -d 1 -p cbr -e 512 -c 0 -i 25 -a 0 -x {0.0 2.0 -1 ------- null}
r -t 0.328192 -s 1 -d 2 -p cbr -e 512 -c 0 -i 20 -a 0 -x {0.0 2.0 20 ------- null}
r -t 0.329096 -s 0 -d 1 -p cbr -e 512 -c 0 -i 23 -a 0 -x {0.0 2.0 23 ------- null}
+ -t 0.329096 -s 1 -d 2 -p cbr -e 512 -c 0 -i 23 -a 0 -x {0.0 2.0 23 ------- null}
- -t 0.329096 -s 1 -d 2 -p cbr -e 512 -c 0 -i 23 -a 0 -x {0.0 2.0 23 ------- null}
h -t 0.329096 -s 1 -d 2 -p cbr -e 512 -c 0 -i 23 -a 0 -x {0.0 2.0 -1 ------- null}
+ -t 0.33 -s 0 -d 1 -p cbr -e 512 -c 0 -i 26 -a 0 -x {0.0 2.0 26 ------- null}
- -t 0.33 -s 0 -d 1 -p cbr -e 512 -c 0 -i 26 -a 0 -x {0.0 2.0 26 ------- null}
h -t 0.33 -s 0 -d 1 -p cbr -e 512 -c 0 -i 26 -a 0 -x {0.0 2.0 -1 ------- null}
r -t 0.333192 -s 1 -d 2 -p cbr -e 512 -c 0 -i 21 -a 0 -x {0.0 2.0 21 ------- null}
r -t 0.334096 -s 0 -d 1 -p cbr -e 512 -c 0 -i 24 -a 0 -x {0.0 2.0 24 ------- null}
+ -t 0.334096 -s 1 -d 2 -p cbr -e 512 -c 0 -i 24 -a 0 -x {0.0 2.0 24 ------- null}
- -t 0.334096 -s 1 -d 2 -p cbr -e 512 -c 0 -i 24 -a 0 -x {0.0 2.0 24 ------- null}
h -t 0.334096 -s 1 -d 2 -p cbr -e 512 -c 0 -i 24 -a 0 -x {0.0 2.0 -1 ------- null}
+ -t 0.335 -s 0 -d 1 -p cbr -e 512 -c 0 -i 27 -a 0 -x {0.0 2.0 27 ------- null}
- -t 0.335 -s 0 -d 1 -p cbr -e 512 -c 0 -i 27 -a 0 -x {0.0 2.0 27 ------- null}
h -t 0.335 -s 0 -d 1 -p cbr -e 512 -c 0 -i 27 -a 0 -x {0.0 2.0 -1 ------- null}
r -t 0.338192 -s 1 -d 2 -p cbr -e 512 -c 0 -i 22 -a 0 -x {0.0 2.0 22 ------- null}
r -t 0.339096 -s 0 -d 1 -p cbr -e 512 -c 0 -i 25 -a 0 -x {0.0 2.0 25 ------- null}
+ -t 0.339096 -s 1 -d 2 -p cbr -e 512 -c 0 -i 25 -a 0 -x {0.0 2.0 25 ------- null}
- -t 0.339096 -s 1 -d 2 -p cbr -e 512 -c 0 -i 25 -a 0 -x {0.0 2.0 25 ------- null}
h -t 0.339096 -s 1 -d 2 -p cbr -e 512 -c 0 -i 25 -a 0 -x {0.0 2.0 -1 ------- null}
+ -t 0.34 -s 0 -d 1 -p cbr -e 512 -c 0 -i 28 -a 0 -x {0.0 2.0 28 ------- null}
- -t 0.34 -s 0 -d 1 -p cbr -e 512 -c 0 -i 28 -a 0 -x {0.0 2.0 28 ------- null}
h -t 0.34 -s 0 -d 1 -p cbr -e 512 -c 0 -i 28 -a 0 -x {0.0 2.0 -1 ------- null}
r -t 0.343192 -s 1 -d 2 -p cbr -e 512 -c 0 -i 23 -a 0 -x {0.0 2.0 23 ------- null}
r -t 0.344096 -s 0 -d 1 -p cbr -e 512 -c 0 -i 26 -a 0 -x {0.0 2.0 26 ------- null}
+ -t 0.344096 -s 1 -d 2 -p cbr -e 512 -c 0 -i 26 -a 0 -x {0.0 2.0 26 ------- null}
- -t 0.344096 -s 1 -d 2 -p cbr -e 512 -c 0 -i 26 -a 0 -x {0.0 2.0 26 ------- null}
h -t 0.344096 -s 1 -d 2 -p cbr -e 512 -c 0 -i 26 -a 0 -x {0.0 2.0 -1 ------- null}
+ -t 0.345 -s 0 -d 1 -p cbr -e 512 -c 0 -i 29 -a 0 -x {0.0 2.0 29 ------- null}
- -t 0.345 -s 0 -d 1 -p cbr -e 512 -c 0 -i 29 -a 0 -x {0.0 2.0 29 ------- null}
h -t 0.345 -s 0 -d 1 -p cbr -e 512 -c 0 -i 29 -a 0 -x {0.0 2.0 -1 ------- null}
r -t 0.348192 -s 1 -d 2 -p cbr -e 512 -c 0 -i 24 -a 0 -x {0.0 2.0 24 ------- null}
r -t 0.349096 -s 0 -d 1 -p cbr -e 512 -c 0 -i 27 -a 0 -x {0.0 2.0 27 ------- null}
+ -t 0.349096 -s 1 -d 2 -p cbr -e 512 -c 0 -i 27 -a 0 -x {0.0 2.0 27 ------- null}
- -t 0.349096 -s 1 -d 2 -p cbr -e 512 -c 0 -i 27 -a 0 -x {0.0 2.0 27 ------- null}
h -t 0.349096 -s 1 -d 2 -p cbr -e 512 -c 0 -i 27 -a 0 -x {0.0 2.0 -1 ------- null}
+ -t 0.35 -s 0 -d 1 -p cbr -e 512 -c 0 -i 30 -a 0 -x {0.0 2.0 30 ------- null}
- -t 0.35 -s 0 -d 1 -p cbr -e 512 -c 0 -i 30 -a 0 -x {0.0 2.0 30 ------- null}
h -t 0.35 -s 0 -d 1 -p cbr -e 512 -c 0 -i 30 -a 0 -x {0.0 2.0 -1 ------- null}
r -t 0.353192 -s 1 -d 2 -p cbr -e 512 -c 0 -i 25 -a 0 -x {0.0 2.0 25 ------- null}
r -t 0.354096 -s 0 -d 1 -p cbr -e 512 -c 0 -i 28 -a 0 -x {0.0 2.0 28 ------- null}
+ -t 0.354096 -s 1 -d 2 -p cbr -e 512 -c 0 -i 28 -a 0 -x {0.0 2.0 28 ------- null}
- -t 0.354096 -s 1 -d 2 -p cbr -e 512 -c 0 -i 28 -a 0 -x {0.0 2.0 28 ------- null}
h -t 0.354096 -s 1 -d 2 -p cbr -e 512 -c 0 -i 28 -a 0 -x {0.0 2.0 -1 ------- null}
+ -t 0.355 -s 0 -d 1 -p cbr -e 512 -c 0 -i 31 -a 0 -x {0.0 2.0 31 ------- null}
- -t 0.355 -s 0 -d 1 -p cbr -e 512 -c 0 -i 31 -a 0 -x {0.0 2.0 31 ------- null}
h -t 0.355 -s 0 -d 1 -p cbr -e 512 -c 0 -i 31 -a 0 -x {0.0 2.0 -1 ------- null}
r -t 0.358192 -s 1 -d 2 -p cbr -e 512 -c 0 -i 26 -a 0 -x {0.0 2.0 26 ------- null}
r -t 0.359096 -s 0 -d 1 -p cbr -e 512 -c 0 -i 29 -a 0 -x {0.0 2.0 29 ------- null}
+ -t 0.359096 -s 1 -d 2 -p cbr -e 512 -c 0 -i 29 -a 0 -x {0.0 2.0 29 ------- null}
- -t 0.359096 -s 1 -d 2 -p cbr -e 512 -c 0 -i 29 -a 0 -x {0.0 2.0 29 ------- null}
h -t 0.359096 -s 1 -d 2 -p cbr -e 512 -c 0 -i 29 -a 0 -x {0.0 2.0 -1 ------- null}
+ -t 0.36 -s 0 -d 1 -p cbr -e 512 -c 0 -i 32 -a 0 -x {0.0 2.0 32 ------- null}
- -t 0.36 -s 0 -d 1 -p cbr -e 512 -c 0 -i 32 -a 0 -x {0.0 2.0 32 ------- null}
h -t 0.36 -s 0 -d 1 -p cbr -e 512 -c 0 -i 32 -a 0 -x {0.0 2.0 -1 ------- null}
r -t 0.363192 -s 1 -d 2 -p cbr -e 512 -c 0 -i 27 -a 0 -x {0.0 2.0 27 ------- null}
r -t 0.364096 -s 0 -d 1 -p cbr -e 512 -c 0 -i 30 -a 0 -x {0.0 2.0 30 ------- null}
+ -t 0.364096 -s 1 -d 2 -p cbr -e 512 -c 0 -i 30 -a 0 -x {0.0 2.0 30 ------- null}
- -t 0.364096 -s 1 -d 2 -p cbr -e 512 -c 0 -i 30 -a 0 -x {0.0 2.0 30 ------- null}
h -t 0.364096 -s 1 -d 2 -p cbr -e 512 -c 0 -i 30 -a 0 -x {0.0 2.0 -1 ------- null}
+ -t 0.365 -s 0 -d 1 -p cbr -e 512 -c 0 -i 33 -a 0 -x {0.0 2.0 33 ------- null}
- -t 0.365 -s 0 -d 1 -p cbr -e 512 -c 0 -i 33 -a 0 -x {0.0 2.0 33 ------- null}
h -t 0.365 -s 0 -d 1 -p cbr -e 512 -c 0 -i 33 -a 0 -x {0.0 2.0 -1 ------- null}
r -t 0.368192 -s 1 -d 2 -p cbr -e 512 -c 0 -i 28 -a 0 -x {0.0 2.0 28 ------- null}
r -t 0.369096 -s 0 -d 1 -p cbr -e 512 -c 0 -i 31 -a 0 -x {0.0 2.0 31 ------- null}
+ -t 0.369096 -s 1 -d 2 -p cbr -e 512 -c 0 -i 31 -a 0 -x {0.0 2.0 31 ------- null}
- -t 0.369096 -s 1 -d 2 -p cbr -e 512 -c 0 -i 31 -a 0 -x {0.0 2.0 31 ------- null}
h -t 0.369096 -s 1 -d 2 -p cbr -e 512 -c 0 -i 31 -a 0 -x {0.0 2.0 -1 ------- null}
+ -t 0.37 -s 0 -d 1 -p cbr -e 512 -c 0 -i 34 -a 0 -x {0.0 2.0 34 ------- null}
- -t 0.37 -s 0 -d 1 -p cbr -e 512 -c 0 -i 34 -a 0 -x {0.0 2.0 34 ------- null}
h -t 0.37 -s 0 -d 1 -p cbr -e 512 -c 0 -i 34 -a 0 -x {0.0 2.0 -1 ------- null}
r -t 0.373192 -s 1 -d 2 -p cbr -e 512 -c 0 -i 29 -a 0 -x {0.0 2.0 29 ------- null}
r -t 0.374096 -s 0 -d 1 -p cbr -e 512 -c 0 -i 32 -a 0 -x {0.0 2.0 32 ------- null}
+ -t 0.374096 -s 1 -d 2 -p cbr -e 512 -c 0 -i 32 -a 0 -x {0.0 2.0 32 ------- null}
- -t 0.374096 -s 1 -d 2 -p cbr -e 512 -c 0 -i 32 -a 0 -x {0.0 2.0 32 ------- null}
h -t 0.374096 -s 1 -d 2 -p cbr -e 512 -c 0 -i 32 -a 0 -x {0.0 2.0 -1 ------- null}
+ -t 0.375 -s 0 -d 1 -p cbr -e 512 -c 0 -i 35 -a 0 -x {0.0 2.0 35 ------- null}
- -t 0.375 -s 0 -d 1 -p cbr -e 512 -c 0 -i 35 -a 0 -x {0.0 2.0 35 ------- null}
h -t 0.375 -s 0 -d 1 -p cbr -e 512 -c 0 -i 35 -a 0 -x {0.0 2.0 -1 ------- null}
r -t 0.378192 -s 1 -d 2 -p cbr -e 512 -c 0 -i 30 -a 0 -x {0.0 2.0 30 ------- null}
r -t 0.379096 -s 0 -d 1 -p cbr -e 512 -c 0 -i 33 -a 0 -x {0.0 2.0 33 ------- null}
+ -t 0.379096 -s 1 -d 2 -p cbr -e 512 -c 0 -i 33 -a 0 -x {0.0 2.0 33 ------- null}
- -t 0.379096 -s 1 -d 2 -p cbr -e 512 -c 0 -i 33 -a 0 -x {0.0 2.0 33 ------- null}
h -t 0.379096 -s 1 -d 2 -p cbr -e 512 -c 0 -i 33 -a 0 -x {0.0 2.0 -1 ------- null}
+ -t 0.38 -s 0 -d 1 -p cbr -e 512 -c 0 -i 36 -a 0 -x {0.0 2.0 36 ------- null}
- -t 0.38 -s 0 -d 1 -p cbr -e 512 -c 0 -i 36 -a 0 -x {0.0 2.0 36 ------- null}
h -t 0.38 -s 0 -d 1 -p cbr -e 512 -c 0 -i 36 -a 0 -x {0.0 2.0 -1 ------- null}
r -t 0.383192 -s 1 -d 2 -p cbr -e 512 -c 0 -i 31 -a 0 -x {0.0 2.0 31 ------- null}
r -t 0.384096 -s 0 -d 1 -p cbr -e 512 -c 0 -i 34 -a 0 -x {0.0 2.0 34 ------- null}
+ -t 0.384096 -s 1 -d 2 -p cbr -e 512 -c 0 -i 34 -a 0 -x {0.0 2.0 34 ------- null}
- -t 0.384096 -s 1 -d 2 -p cbr -e 512 -c 0 -i 34 -a 0 -x {0.0 2.0 34 ------- null}
h -t 0.384096 -s 1 -d 2 -p cbr -e 512 -c 0 -i 34 -a 0 -x {0.0 2.0 -1 ------- null}
+ -t 0.385 -s 0 -d 1 -p cbr -e 512 -c 0 -i 37 -a 0 -x {0.0 2.0 37 ------- null}
- -t 0.385 -s 0 -d 1 -p cbr -e 512 -c 0 -i 37 -a 0 -x {0.0 2.0 37 ------- null}
h -t 0.385 -s 0 -d 1 -p cbr -e 512 -c 0 -i 37 -a 0 -x {0.0 2.0 -1 ------- null}
r -t 0.388192 -s 1 -d 2 -p cbr -e 512 -c 0 -i 32 -a 0 -x {0.0 2.0 32 ------- null}
r -t 0.389096 -s 0 -d 1 -p cbr -e 512 -c 0 -i 35 -a 0 -x {0.0 2.0 35 ------- null}
+ -t 0.389096 -s 1 -d 2 -p cbr -e 512 -c 0 -i 35 -a 0 -x {0.0 2.0 35 ------- null}
- -t 0.389096 -s 1 -d 2 -p cbr -e 512 -c 0 -i 35 -a 0 -x {0.0 2.0 35 ------- null}
h -t 0.389096 -s 1 -d 2 -p cbr -e 512 -c 0 -i 35 -a 0 -x {0.0 2.0 -1 ------- null}
+ -t 0.39 -s 0 -d 1 -p cbr -e 512 -c 0 -i 38 -a 0 -x {0.0 2.0 38 ------- null}
- -t 0.39 -s 0 -d 1 -p cbr -e 512 -c 0 -i 38 -a 0 -x {0.0 2.0 38 ------- null}
h -t 0.39 -s 0 -d 1 -p cbr -e 512 -c 0 -i 38 -a 0 -x {0.0 2.0 -1 ------- null}
r -t 0.393192 -s 1 -d 2 -p cbr -e 512 -c 0 -i 33 -a 0 -x {0.0 2.0 33 ------- null}
r -t 0.394096 -s 0 -d 1 -p cbr -e 512 -c 0 -i 36 -a 0 -x {0.0 2.0 36 ------- null}
+ -t 0.394096 -s 1 -d 2 -p cbr -e 512 -c 0 -i 36 -a 0 -x {0.0 2.0 36 ------- null}
- -t 0.394096 -s 1 -d 2 -p cbr -e 512 -c 0 -i 36 -a 0 -x {0.0 2.0 36 ------- null}
h -t 0.394096 -s 1 -d 2 -p cbr -e 512 -c 0 -i 36 -a 0 -x {0.0 2.0 -1 ------- null}
+ -t 0.395 -s 0 -d 1 -p cbr -e 512 -c 0 -i 39 -a 0 -x {0.0 2.0 39 ------- null}
- -t 0.395 -s 0 -d 1 -p cbr -e 512 -c 0 -i 39 -a 0 -x {0.0 2.0 39 ------- null}
h -t 0.395 -s 0 -d 1 -p cbr -e 512 -c 0 -i 39 -a 0 -x {0.0 2.0 -1 ------- null}
r -t 0.398192 -s 1 -d 2 -p cbr -e 512 -c 0 -i 34 -a 0 -x {0.0 2.0 34 ------- null}
r -t 0.399096 -s 0 -d 1 -p cbr -e 512 -c 0 -i 37 -a 0 -x {0.0 2.0 37 ------- null}
+ -t 0.399096 -s 1 -d 2 -p cbr -e 512 -c 0 -i 37 -a 0 -x {0.0 2.0 37 ------- null}
- -t 0.399096 -s 1 -d 2 -p cbr -e 512 -c 0 -i 37 -a 0 -x {0.0 2.0 37 ------- null}
h -t 0.399096 -s 1 -d 2 -p cbr -e 512 -c 0 -i 37 -a 0 -x {0.0 2.0 -1 ------- null}
+ -t 0.4 -s 0 -d 1 -p cbr -e 512 -c 0 -i 40 -a 0 -x {0.0 2.0 40 ------- null}
- -t 0.4 -s 0 -d 1 -p cbr -e 512 -c 0 -i 40 -a 0 -x {0.0 2.0 40 ------- null}
h -t 0.4 -s 0 -d 1 -p cbr -e 512 -c 0 -i 40 -a 0 -x {0.0 2.0 -1 ------- null}
r -t 0.403192 -s 1 -d 2 -p cbr -e 512 -c 0 -i 35 -a 0 -x {0.0 2.0 35 ------- null}
r -t 0.404096 -s 0 -d 1 -p cbr -e 512 -c 0 -i 38 -a 0 -x {0.0 2.0 38 ------- null}
+ -t 0.404096 -s 1 -d 2 -p cbr -e 512 -c 0 -i 38 -a 0 -x {0.0 2.0 38 ------- null}
- -t 0.404096 -s 1 -d 2 -p cbr -e 512 -c 0 -i 38 -a 0 -x {0.0 2.0 38 ------- null}
h -t 0.404096 -s 1 -d 2 -p cbr -e 512 -c 0 -i 38 -a 0 -x {0.0 2.0 -1 ------- null}
+ -t 0.405 -s 0 -d 1 -p cbr -e 512 -c 0 -i 41 -a 0 -x {0.0 2.0 41 ------- null}
- -t 0.405 -s 0 -d 1 -p cbr -e 512 -c 0 -i 41 -a 0 -x {0.0 2.0 41 ------- null}
h -t 0.405 -s 0 -d 1 -p cbr -e 512 -c 0 -i 41 -a 0 -x {0.0 2.0 -1 ------- null}
r -t 0.408192 -s 1 -d 2 -p cbr -e 512 -c 0 -i 36 -a 0 -x {0.0 2.0 36 ------- null}
r -t 0.409096 -s 0 -d 1 -p cbr -e 512 -c 0 -i 39 -a 0 -x {0.0 2.0 39 ------- null}
+ -t 0.409096 -s 1 -d 2 -p cbr -e 512 -c 0 -i 39 -a 0 -x {0.0 2.0 39 ------- null}
- -t 0.409096 -s 1 -d 2 -p cbr -e 512 -c 0 -i 39 -a 0 -x {0.0 2.0 39 ------- null}
h -t 0.409096 -s 1 -d 2 -p cbr -e 512 -c 0 -i 39 -a 0 -x {0.0 2.0 -1 ------- null}
+ -t 0.41 -s 0 -d 1 -p cbr -e 512 -c 0 -i 42 -a 0 -x {0.0 2.0 42 ------- null}
- -t 0.41 -s 0 -d 1 -p cbr -e 512 -c 0 -i 42 -a 0 -x {0.0 2.0 42 ------- null}
h -t 0.41 -s 0 -d 1 -p cbr -e 512 -c 0 -i 42 -a 0 -x {0.0 2.0 -1 ------- null}
r -t 0.413192 -s 1 -d 2 -p cbr -e 512 -c 0 -i 37 -a 0 -x {0.0 2.0 37 ------- null}
r -t 0.414096 -s 0 -d 1 -p cbr -e 512 -c 0 -i 40 -a 0 -x {0.0 2.0 40 ------- null}
+ -t 0.414096 -s 1 -d 2 -p cbr -e 512 -c 0 -i 40 -a 0 -x {0.0 2.0 40 ------- null}
- -t 0.414096 -s 1 -d 2 -p cbr -e 512 -c 0 -i 40 -a 0 -x {0.0 2.0 40 ------- null}
h -t 0.414096 -s 1 -d 2 -p cbr -e 512 -c 0 -i 40 -a 0 -x {0.0 2.0 -1 ------- null}
+ -t 0.415 -s 0 -d 1 -p cbr -e 512 -c 0 -i 43 -a 0 -x {0.0 2.0 43 ------- null}
- -t 0.415 -s 0 -d 1 -p cbr -e 512 -c 0 -i 43 -a 0 -x {0.0 2.0 43 ------- null}
h -t 0.415 -s 0 -d 1 -p cbr -e 512 -c 0 -i 43 -a 0 -x {0.0 2.0 -1 ------- null}
r -t 0.418192 -s 1 -d 2 -p cbr -e 512 -c 0 -i 38 -a 0 -x {0.0 2.0 38 ------- null}
r -t 0.419096 -s 0 -d 1 -p cbr -e 512 -c 0 -i 41 -a 0 -x {0.0 2.0 41 ------- null}
+ -t 0.419096 -s 1 -d 2 -p cbr -e 512 -c 0 -i 41 -a 0 -x {0.0 2.0 41 ------- null}
- -t 0.419096 -s 1 -d 2 -p cbr -e 512 -c 0 -i 41 -a 0 -x {0.0 2.0 41 ------- null}
h -t 0.419096 -s 1 -d 2 -p cbr -e 512 -c 0 -i 41 -a 0 -x {0.0 2.0 -1 ------- null}
+ -t 0.42 -s 0 -d 1 -p cbr -e 512 -c 0 -i 44 -a 0 -x {0.0 2.0 44 ------- null}
- -t 0.42 -s 0 -d 1 -p cbr -e 512 -c 0 -i 44 -a 0 -x {0.0 2.0 44 ------- null}
h -t 0.42 -s 0 -d 1 -p cbr -e 512 -c 0 -i 44 -a 0 -x {0.0 2.0 -1 ------- null}
r -t 0.423192 -s 1 -d 2 -p cbr -e 512 -c 0 -i 39 -a 0 -x {0.0 2.0 39 ------- null}
r -t 0.424096 -s 0 -d 1 -p cbr -e 512 -c 0 -i 42 -a 0 -x {0.0 2.0 42 ------- null}
+ -t 0.424096 -s 1 -d 2 -p cbr -e 512 -c 0 -i 42 -a 0 -x {0.0 2.0 42 ------- null}
- -t 0.424096 -s 1 -d 2 -p cbr -e 512 -c 0 -i 42 -a 0 -x {0.0 2.0 42 ------- null}
h -t 0.424096 -s 1 -d 2 -p cbr -e 512 -c 0 -i 42 -a 0 -x {0.0 2.0 -1 ------- null}
+ -t 0.425 -s 0 -d 1 -p cbr -e 512 -c 0 -i 45 -a 0 -x {0.0 2.0 45 ------- null}
- -t 0.425 -s 0 -d 1 -p cbr -e 512 -c 0 -i 45 -a 0 -x {0.0 2.0 45 ------- null}
h -t 0.425 -s 0 -d 1 -p cbr -e 512 -c 0 -i 45 -a 0 -x {0.0 2.0 -1 ------- null}
r -t 0.428192 -s 1 -d 2 -p cbr -e 512 -c 0 -i 40 -a 0 -x {0.0 2.0 40 ------- null}
r -t 0.429096 -s 0 -d 1 -p cbr -e 512 -c 0 -i 43 -a 0 -x {0.0 2.0 43 ------- null}
+ -t 0.429096 -s 1 -d 2 -p cbr -e 512 -c 0 -i 43 -a 0 -x {0.0 2.0 43 ------- null}
- -t 0.429096 -s 1 -d 2 -p cbr -e 512 -c 0 -i 43 -a 0 -x {0.0 2.0 43 ------- null}
h -t 0.429096 -s 1 -d 2 -p cbr -e 512 -c 0 -i 43 -a 0 -x {0.0 2.0 -1 ------- null}
+ -t 0.43 -s 0 -d 1 -p cbr -e 512 -c 0 -i 46 -a 0 -x {0.0 2.0 46 ------- null}
- -t 0.43 -s 0 -d 1 -p cbr -e 512 -c 0 -i 46 -a 0 -x {0.0 2.0 46 ------- null}
h -t 0.43 -s 0 -d 1 -p cbr -e 512 -c 0 -i 46 -a 0 -x {0.0 2.0 -1 ------- null}
r -t 0.433192 -s 1 -d 2 -p cbr -e 512 -c 0 -i 41 -a 0 -x {0.0 2.0 41 ------- null}
r -t 0.434096 -s 0 -d 1 -p cbr -e 512 -c 0 -i 44 -a 0 -x {0.0 2.0 44 ------- null}
+ -t 0.434096 -s 1 -d 2 -p cbr -e 512 -c 0 -i 44 -a 0 -x {0.0 2.0 44 ------- null}
- -t 0.434096 -s 1 -d 2 -p cbr -e 512 -c 0 -i 44 -a 0 -x {0.0 2.0 44 ------- null}
h -t 0.434096 -s 1 -d 2 -p cbr -e 512 -c 0 -i 44 -a 0 -x {0.0 2.0 -1 ------- null}
+ -t 0.435 -s 0 -d 1 -p cbr -e 512 -c 0 -i 47 -a 0 -x {0.0 2.0 47 ------- null}
- -t 0.435 -s 0 -d 1 -p cbr -e 512 -c 0 -i 47 -a 0 -x {0.0 2.0 47 ------- null}