+ 0.2 0 1 cbr 512 ------- 0 0.0 2.0 0 0
- 0.2 0 1 cbr 512 ------- 0 0.0 2.0 0 0
+ 0.205 0 1 cbr 512 ------- 0 0.0 2.0 1 1
- 0.205 0 1 cbr 512 ------- 0 0.0 2.0 1 1
+ 0.21 0 1 cbr 512 ------- 0 0.0 2.0 2 2
- 0.21 0 1 cbr 512 ------- 0 0.0 2.0 2 2
r 0.214096 0 1 cbr 512 ------- 0 0.0 2.0 0 0
+ 0.214096 1 2 cbr 512 ------- 0 0.0 2.0 0 0
- 0.214096 1 2 cbr 512 ------- 0 0.0 2.0 0 0
+ 0.215 0 1 cbr 512 ------- 0 0.0 2.0 3 3
- 0.215 0 1 cbr 512 ------- 0 0.0 2.0 3 3
r 0.219096 0 1 cbr 512 ------- 0 0.0 2.0 1 1
+ 0.219096 1 2 cbr 512 ------- 0 0.0 2.0 1 1
- 0.219096 1 2 cbr 512 ------- 0 0.0 2.0 1 1
+ 0.22 0 1 cbr 512 ------- 0 0.0 2.0 4 4
- 0.22 0 1 cbr 512 ------- 0 0.0 2.0 4 4
r 0.224096 0 1 cbr 512 ------- 0 0.0 2.0 2 2
+ 0.224096 1 2 cbr 512 ------- 0 0.0 2.0 2 2
- 0.224096 1 2 cbr 512 ------- 0 0.0 2.0 2 2
+ 0.225 0 1 cbr 512 ------- 0 0.0 2.0 5 5
- 0.225 0 1 cbr 512 ------- 0 0.0 2.0 5 5
r 0.228192 1 2 cbr 512 ------- 0 0.0 2.0 0 0
r 0.229096 0 1 cbr 512 ------- 0 0.0 2.0 3 3
+ 0.229096 1 2 cbr 512 ------- 0 0.0 2.0 3 3
- 0.229096 1 2 cbr 512 ------- 0 0.0 2.0 3 3
+ 0.23 0 1 cbr 512 ------- 0 0.0 2.0 6 6
- 0.23 0 1 cbr 512 ------- 0 0.0 2.0 6 6
r 0.233192 1 2 cbr 512 ------- 0 0.0 2.0 1 1
r 0.234096 0 1 cbr 512 ------- 0 0.0 2.0 4 4
+ 0.234096 1 2 cbr 512 ------- 0 0.0 2.0 4 4
- 0.234096 1 2 cbr 512 ------- 0 0.0 2.0 4 4
+ 0.235 0 1 cbr 512 ------- 0 0.0 2.0 7 7
- 0.235 0 1 cbr 512 ------- 0 0.0 2.0 7 7
r 0.238192 1 2 cbr 512 ------- 0 0.0 2.0 2 2
r 0.239096 0 1 cbr 512 ------- 0 0.0 2.0 5 5
+ 0.239096 1 2 cbr 512 ------- 0 0.0 2.0 5 5
- 0.239096 1 2 cbr 512 ------- 0 0.0 2.0 5 5
+ 0.24 0 1 cbr 512 ------- 0 0.0 2.0 8 8
- 0.24 0 1 cbr 512 ------- 0 0.0 2.0 8 8
r 0.243192 1 2 cbr 512 ------- 0 0.0 2.0 3 3
r 0.244096 0 1 cbr 512 ------- 0 0.0 2.0 6 6
+ 0.244096 1 2 cbr 512 ------- 0 0.0 2.0 6 6
- 0.244096 1 2 cbr 512 ------- 0 0.0 2.0 6 6
+ 0.245 0 1 cbr 512 ------- 0 0.0 2.0 9 9
- 0.245 0 1 cbr 512 ------- 0 0.0 2.0 9 9
r 0.248192 1 2 cbr 512 ------- 0 0.0 2.0 4 4
r 0.249096 0 1 cbr 512 ------- 0 0.0 2.0 7 7
+ 0.249096 1 2 cbr 512 ------- 0 0.0 2.0 7 7
- 0.249096 1 2 cbr 512 ------- 0 0.0 2.0 7 7
+ 0.25 0 1 cbr 512 ------- 0 0.0 2.0 10 10
- 0.25 0 1 cbr 512 ------- 0 0.0 2.0 10 10
r 0.253192 1 2 cbr 512 ------- 0 0.0 2.0 5 5
r 0.254096 0 1 cbr 512 ------- 0 0.0 2.0 8 8
+ 0.254096 1 2 cbr 512 ------- 0 0.0 2.0 8 8
- 0.254096 1 2 cbr 512 ------- 0 0.0 2.0 8 8
+ 0.255 0 1 cbr 512 ------- 0 0.0 2.0 11 11
- 0.255 0 1 cbr 512 ------- 0 0.0 2.0 11 11
r 0.258192 1 2 cbr 512 ------- 0 0.0 2.0 6 6
r 0.259096 0 1 cbr 512 ------- 0 0.0 2.0 9 9
+ 0.259096 1 2 cbr 512 ------- 0 0.0 2.0 9 9
- 0.259096 1 2 cbr 512 ------- 0 0.0 2.0 9 9
+ 0.26 0 1 cbr 512 ------- 0 0.0 2.0 12 12
- 0.26 0 1 cbr 512 ------- 0 0.0 2.0 12 12
r 0.263192 1 2 cbr 512 ------- 0 0.0 2.0 7 7
r 0.264096 0 1 cbr 512 ------- 0 0.0 2.0 10 10
+ 0.264096 1 2 cbr 512 ------- 0 0.0 2.0 10 10
- 0.264096 1 2 cbr 512 ------- 0 0.0 2.0 10 10
+ 0.265 0 1 cbr 512 ------- 0 0.0 2.0 13 13
- 0.265 0 1 cbr 512 ------- 0 0.0 2.0 13 13
r 0.268192 1 2 cbr 512 ------- 0 0.0 2.0 8 8
r 0.269096 0 1 cbr 512 ------- 0 0.0 2.0 11 11
+ 0.269096 1 2 cbr 512 ------- 0 0.0 2.0 11 11
- 0.269096 1 2 cbr 512 ------- 0 0.0 2.0 11 11
+ 0.27 0 1 cbr 512 ------- 0 0.0 2.0 14 14
- 0.27 0 1 cbr 512 ------- 0 0.0 2.0 14 14
r 0.273192 1 2 cbr 512 ------- 0 0.0 2.0 9 9
r 0.274096 0 1 cbr 512 ------- 0 0.0 2.0 12 12
+ 0.274096 1 2 cbr 512 ------- 0 0.0 2.0 12 12
- 0.274096 1 2 cbr 512 ------- 0 0.0 2.0 12 12
+ 0.275 0 1 cbr 512 ------- 0 0.0 2.0 15 15
- 0.275 0 1 cbr 512 ------- 0 0.0 2.0 15 15
r 0.278192 1 2 cbr 512 ------- 0 0.0 2.0 10 10
r 0.279096 0 1 cbr 512 ------- 0 0.0 2.0 13 13
+ 0.279096 1 2 cbr 512 ------- 0 0.0 2.0 13 13
- 0.279096 1 2 cbr 512 ------- 0 0.0 2.0 13 13
+ 0.28 0 1 cbr 512 ------- 0 0.0 2.0 16 16
- 0.28 0 1 cbr 512 ------- 0 0.0 2.0 16 16
r 0.283192 1 2 cbr 512 ------- 0 0.0 2.0 11 11
r 0.284096 0 1 cbr 512 ------- 0 0.0 2.0 14 14
+ 0.284096 1 2 cbr 512 ------- 0 0.0 2.0 14 14
- 0.284096 1 2 cbr 512 ------- 0 0.0 2.0 14 14
+ 0.285 0 1 cbr 512 ------- 0 0.0 2.0 17 17
- 0.285 0 1 cbr 512 ------- 0 0.0 2.0 17 17
r 0.288192 1 2 cbr 512 ------- 0 0.0 2.0 12 12
r 0.289096 0 1 cbr 512 ------- 0 0.0 2.0 15 15
+ 0.289096 1 2 cbr 512 ------- 0 0.0 2.0 15 15
- 0.289096 1 2 cbr 512 ------- 0 0.0 2.0 15 15
+ 0.29 0 1 cbr 512 ------- 0 0.0 2.0 18 18
- 0.29 0 1 cbr 512 ------- 0 0.0 2.0 18 18
r 0.293192 1 2 cbr 512 ------- 0 0.0 2.0 13 13
r 0.294096 0 1 cbr 512 ------- 0 0.0 2.0 16 16
+ 0.294096 1 2 cbr 512 ------- 0 0.0 2.0 16 16
- 0.294096 1 2 cbr 512 ------- 0 0.0 2.0 16 16
+ 0.295 0 1 cbr 512 ------- 0 0.0 2.0 19 19
- 0.295 0 1 cbr 512 ------- 0 0.0 2.0 19 19
r 0.298192 1 2 cbr 512 ------- 0 0.0 2.0 14 14
r 0.299096 0 1 cbr 512 ------- 0 0.0 2.0 17 17
+ 0.299096 1 2 cbr 512 ------- 0 0.0 2.0 17 17
- 0.299096 1 2 cbr 512 ------- 0 0.0 2.0 17 17
+ 0.3 0 1 cbr 512 ------- 0 0.0 2.0 20 20
- 0.3 0 1 cbr 512 ------- 0 0.0 2.0 20 20
r 0.303192 1 2 cbr 512 ------- 0 0.0 2.0 15 15
r 0.304096 0 1 cbr 512 ------- 0 0.0 2.0 18 18
+ 0.304096 1 2 cbr 512 ------- 0 0.0 2.0 18 18
- 0.304096 1 2 cbr 512 ------- 0 0.0 2.0 18 18
+ 0.305 0 1 cbr 512 ------- 0 0.0 2.0 21 21
- 0.305 0 1 cbr 512 ------- 0 0.0 2.0 21 21
r 0.308192 1 2 cbr 512 ------- 0 0.0 2.0 16 16
r 0.309096 0 1 cbr 512 ------- 0 0.0 2.0 19 19
+ 0.309096 1 2 cbr 512 ------- 0 0.0 2.0 19 19
- 0.309096 1 2 cbr 512 ------- 0 0.0 2.0 19 19
+ 0.31 0 1 cbr 512 ------- 0 0.0 2.0 22 22
- 0.31 0 1 cbr 512 ------- 0 0.0 2.0 22 22
r 0.313192 1 2 cbr 512 ------- 0 0.0 2.0 17 17
r 0.314096 0 1 cbr 512 ------- 0 0.0 2.0 20 20
+ 0.314096 1 2 cbr 512 ------- 0 0.0 2.0 20 20
- 0.314096 1 2 cbr 512 ------- 0 0.0 2.0 20 20
+ 0.315 0 1 cbr 512 ------- 0 0.0 2.0 23 23
- 0.315 0 1 cbr 512 ------- 0 0.0 2.0 23 23
r 0.318192 1 2 cbr 512 ------- 0 0.0 2.0 18 18
r 0.319096 0 1 cbr 512 ------- 0 0.0 2.0 21 21
+ 0.319096 1 2 cbr 512 ------- 0 0.0 2.0 21 21
- 0.319096 1 2 cbr 512 ------- 0 0.0 2.0 21 21
+ 0.32 0 1 cbr 512 ------- 0 0.0 2.0 24 24
- 0.32 0 1 cbr 512 ------- 0 0.0 2.0 24 24
r 0.323192 1 2 cbr 512 ------- 0 0.0 2.0 19 19
r 0.324096 0 1 cbr 512 ------- 0 0.0 2.0 22 22
+ 0.324096 1 2 cbr 512 ------- 0 0.0 2.0 22 22
- 0.324096 1 2 cbr 512 ------- 0 0.0 2.0 22 22
+ 0.325 0 1 cbr 512 ------- 0 0.0 2.0 25 25
- 0.325 0 1 cbr 512 ------- 0 0.0 2.0 25 25
r 0.328192 1 2 cbr 512 ------- 0 0.0 2.0 20 20
r 0.329096 0 1 cbr 512 ------- 0 0.0 2.0 23 23
+ 0.329096 1 2 cbr 512 ------- 0 0.0 2.0 23 23
- 0.329096 1 2 cbr 512 ------- 0 0.0 2.0 23 23
+ 0.33 0 1 cbr 512 ------- 0 0.0 2.0 26 26
- 0.33 0 1 cbr 512 ------- 0 0.0 2.0 26 26
r 0.333192 1 2 cbr 512 ------- 0 0.0 2.0 21 21
r 0.334096 0 1 cbr 512 ------- 0 0.0 2.0 24 24
+ 0.334096 1 2 cbr 512 ------- 0 0.0 2.0 24 24
- 0.334096 1 2 cbr 512 ------- 0 0.0 2.0 24 24
+ 0.335 0 1 cbr 512 ------- 0 0.0 2.0 27 27
- 0.335 0 1 cbr 512 ------- 0 0.0 2.0 27 27
r 0.338192 1 2 cbr 512 ------- 0 0.0 2.0 22 22
r 0.339096 0 1 cbr 512 ------- 0 0.0 2.0 25 25
+ 0.339096 1 2 cbr 512 ------- 0 0.0 2.0 25 25
- 0.339096 1 2 cbr 512 ------- 0 0.0 2.0 25 25
+ 0.34 0 1 cbr 512 ------- 0 0.0 2.0 28 28
- 0.34 0 1 cbr 512 ------- 0 0.0 2.0 28 28
r 0.343192 1 2 cbr 512 ------- 0 0.0 2.0 23 23
r 0.344096 0 1 cbr 512 ------- 0 0.0 2.0 26 26
+ 0.344096 1 2 cbr 512 ------- 0 0.0 2.0 26 26
- 0.344096 1 2 cbr 512 ------- 0 0.0 2.0 26 26
+ 0.345 0 1 cbr 512 ------- 0 0.0 2.0 29 29
- 0.345 0 1 cbr 512 ------- 0 0.0 2.0 29 29
r 0.348192 1 2 cbr 512 ------- 0 0.0 2.0 24 24
r 0.349096 0 1 cbr 512 ------- 0 0.0 2.0 27 27
+ 0.349096 1 2 cbr 512 ------- 0 0.0 2.0 27 27
- 0.349096 1 2 cbr 512 ------- 0 0.0 2.0 27 27
+ 0.35 0 1 cbr 512 ------- 0 0.0 2.0 30 30
- 0.35 0 1 cbr 512 ------- 0 0.0 2.0 30 30
r 0.353192 1 2 cbr 512 ------- 0 0.0 2.0 25 25
r 0.354096 0 1 cbr 512 ------- 0 0.0 2.0 28 28
+ 0.354096 1 2 cbr 512 ------- 0 0.0 2.0 28 28
- 0.354096 1 2 cbr 512 ------- 0 0.0 2.0 28 28
+ 0.355 0 1 cbr 512 ------- 0 0.0 2.0 31 31
- 0.355 0 1 cbr 512 ------- 0 0.0 2.0 31 31
r 0.358192 1 2 cbr 512 ------- 0 0.0 2.0 26 26
r 0.359096 0 1 cbr 512 ------- 0 0.0 2.0 29 29
+ 0.359096 1 2 cbr 512 ------- 0 0.0 2.0 29 29
- 0.359096 1 2 cbr 512 ------- 0 0.0 2.0 29 29
+ 0.36 0 1 cbr 512 ------- 0 0.0 2.0 32 32
- 0.36 0 1 cbr 512 ------- 0 0.0 2.0 32 32
r 0.363192 1 2 cbr 512 ------- 0 0.0 2.0 27 27
r 0.364096 0 1 cbr 512 ------- 0 0.0 2.0 30 30
+ 0.364096 1 2 cbr 512 ------- 0 0.0 2.0 30 30
- 0.364096 1 2 cbr 512 ------- 0 0.0 2.0 30 30
+ 0.365 0 1 cbr 512 ------- 0 0.0 2.0 33 33
- 0.365 0 1 cbr 512 ------- 0 0.0 2.0 33 33
r 0.368192 1 2 cbr 512 ------- 0 0.0 2.0 28 28
r 0.369096 0 1 cbr 512 ------- 0 0.0 2.0 31 31
+ 0.369096 1 2 cbr 512 ------- 0 0.0 2.0 31 31
- 0.369096 1 2 cbr 512 ------- 0 0.0 2.0 31 31
+ 0.37 0 1 cbr 512 ------- 0 0.0 2.0 34 34
- 0.37 0 1 cbr 512 ------- 0 0.0 2.0 34 34
r 0.373192 1 2 cbr 512 ------- 0 0.0 2.0 29 29
r 0.374096 0 1 cbr 512 ------- 0 0.0 2.0 32 32
+ 0.374096 1 2 cbr 512 ------- 0 0.0 2.0 32 32
- 0.374096 1 2 cbr 512 ------- 0 0.0 2.0 32 32
+ 0.375 0 1 cbr 512 ------- 0 0.0 2.0 35 35
- 0.375 0 1 cbr 512 ------- 0 0.0 2.0 35 35
r 0.378192 1 2 cbr 512 ------- 0 0.0 2.0 30 30
r 0.379096 0 1 cbr 512 ------- 0 0.0 2.0 33 33
+ 0.379096 1 2 cbr 512 ------- 0 0.0 2.0 33 33
- 0.379096 1 2 cbr 512 ------- 0 0.0 2.0 33 33
+ 0.38 0 1 cbr 512 ------- 0 0.0 2.0 36 36
- 0.38 0 1 cbr 512 ------- 0 0.0 2.0 36 36
r 0.383192 1 2 cbr 512 ------- 0 0.0 2.0 31 31
r 0.384096 0 1 cbr 512 ------- 0 0.0 2.0 34 34
+ 0.384096 1 2 cbr 512 ------- 0 0.0 2.0 34 34
- 0.384096 1 2 cbr 512 ------- 0 0.0 2.0 34 34
+ 0.385 0 1 cbr 512 ------- 0 0.0 2.0 37 37
- 0.385 0 1 cbr 512 ------- 0 0.0 2.0 37 37
r 0.388192 1 2 cbr 512 ------- 0 0.0 2.0 32 32
r 0.389096 0 1 cbr 512 ------- 0 0.0 2.0 35 35
+ 0.389096 1 2 cbr 512 ------- 0 0.0 2.0 35 35
- 0.389096 1 2 cbr 512 ------- 0 0.0 2.0 35 35
+ 0.39 0 1 cbr 512 ------- 0 0.0 2.0 38 38
- 0.39 0 1 cbr 512 ------- 0 0.0 2.0 38 38
r 0.393192 1 2 cbr 512 ------- 0 0.0 2.0 33 33
r 0.394096 0 1 cbr 512 ------- 0 0.0 2.0 36 36
+ 0.394096 1 2 cbr 512 ------- 0 0.0 2.0 36 36
- 0.394096 1 2 cbr 512 ------- 0 0.0 2.0 36 36
+ 0.395 0 1 cbr 512 ------- 0 0.0 2.0 39 39
- 0.395 0 1 cbr 512 ------- 0 0.0 2.0 39 39
r 0.398192 1 2 cbr 512 ------- 0 0.0 2.0 34 34
r 0.399096 0 1 cbr 512 ------- 0 0.0 2.0 37 37
+ 0.399096 1 2 cbr 512 ------- 0 0.0 2.0 37 37
- 0.399096 1 2 cbr 512 ------- 0 0.0 2.0 37 37
+ 0.4 0 1 cbr 512 ------- 0 0.0 2.0 40 40
- 0.4 0 1 cbr 512 ------- 0 0.0 2.0 40 40
r 0.403192 1 2 cbr 512 ------- 0 0.0 2.0 35 35
r 0.404096 0 1 cbr 512 ------- 0 0.0 2.0 38 38
+ 0.404096 1 2 cbr 512 ------- 0 0.0 2.0 38 38
- 0.404096 1 2 cbr 512 ------- 0 0.0 2.0 38 38
+ 0.405 0 1 cbr 512 ------- 0 0.0 2.0 41 41
- 0.405 0 1 cbr 512 ------- 0 0.0 2.0 41 41
r 0.408192 1 2 cbr 512 ------- 0 0.0 2.0 36 36
r 0.409096 0 1 cbr 512 ------- 0 0.0 2.0 39 39
+ 0.409096 1 2 cbr 512 ------- 0 0.0 2.0 39 39
- 0.409096 1 2 cbr 512 ------- 0 0.0 2.0 39 39
+ 0.41 0 1 cbr 512 ------- 0 0.0 2.0 42 42
- 0.41 0 1 cbr 512 ------- 0 0.0 2.0 42 42
r 0.413192 1 2 cbr 512 ------- 0 0.0 2.0 37 37
r 0.414096 0 1 cbr 512 ------- 0 0.0 2.0 40 40
+ 0.414096 1 2 cbr 512 ------- 0 0.0 2.0 40 40
- 0.414096 1 2 cbr 512 ------- 0 0.0 2.0 40 40
+ 0.415 0 1 cbr 512 ------- 0 0.0 2.0 43 43
- 0.415 0 1 cbr 512 ------- 0 0.0 2.0 43 43
r 0.418192 1 2 cbr 512 ------- 0 0.0 2.0 38 38
r 0.419096 0 1 cbr 512 ------- 0 0.0 2.0 41 41
+ 0.419096 1 2 cbr 512 ------- 0 0.0 2.0 41 41
- 0.419096 1 2 cbr 512 ------- 0 0.0 2.0 41 41
+ 0.42 0 1 cbr 512 ------- 0 0.0 2.0 44 44
- 0.42 0 1 cbr 512 ------- 0 0.0 2.0 44 44
r 0.423192 1 2 cbr 512 ------- 0 0.0 2.0 39 39
r 0.424096 0 1 cbr 512 ------- 0 0.0 2.0 42 42
+ 0.424096 1 2 cbr 512 ------- 0 0.0 2.0 42 42
- 0.424096 1 2 cbr 512 ------- 0 0.0 2.0 42 42
+ 0.425 0 1 cbr 512 ------- 0 0.0 2.0 45 45
- 0.425 0 1 cbr 512 ------- 0 0.0 2.0 45 45
r 0.428192 1 2 cbr 512 ------- 0 0.0 2.0 40 40
r 0.429096 0 1 cbr 512 ------- 0 0.0 2.0 43 43
+ 0.429096 1 2 cbr 512 ------- 0 0.0 2.0 43 43
- 0.429096 1 2 cbr 512 ------- 0 0.0 2.0 43 43
+ 0.43 0 1 cbr 512 ------- 0 0.0 2.0 46 46
- 0.43 0 1 cbr 512 ------- 0 0.0 2.0 46 46
r 0.433192 1 2 cbr 512 ------- 0 0.0 2.0 41 41
r 0.434096 0 1 cbr 512 ------- 0 0.0 2.0 44 44
+ 0.434096 1 2 cbr 512 ------- 0 0.0 2.0 44 44
- 0.434096 1 2 cbr 512 ------- 0 0.0 2.0 44 44
+ 0.435 0 1 cbr 512 ------- 0 0.0 2.0 47 47
- 0.435 0 1 cbr 512 ------- 0 0.0 2.0 47 47
r 0.438192 1 2 cbr 512 ------- 0 0.0 2.0 42 42
r 0.439096 0 1 cbr 512 ------- 0 0.0 2.0 45 45
+ 0.439096 1 2 cbr 512 ------- 0 0.0 2.0 45 45
- 0.439096 1 2 cbr 512 ------- 0 0.0 2.0 45 45
+ 0.44 0 1 cbr 512 ------- 0 0.0 2.0 48 48
- 0.44 0 1 cbr 512 ------- 0 0.0 2.0 48 48
r 0.443192 1 2 cbr 512 ------- 0 0.0 2.0 43 43
r 0.444096 0 1 cbr 512 ------- 0 0.0 2.0 46 46
+ 0.444096 1 2 cbr 512 ------- 0 0.0 2.0 46 46
- 0.444096 1 2 cbr 512 ------- 0 0.0 2.0 46 46
+ 0.445 0 1 cbr 512 ------- 0 0.0 2.0 49 49
- 0.445 0 1 cbr 512 ------- 0 0.0 2.0 49 49
r 0.448192 1 2 cbr 512 ------- 0 0.0 2.0 44 44
r 0.449096 0 1 cbr 512 ------- 0 0.0 2.0 47 47
+ 0.449096 1 2 cbr 512 ------- 0 0.0 2.0 47 47
- 0.449096 1 2 cbr 512 ------- 0 0.0 2.0 47 47
+ 0.45 0 1 cbr 512 ------- 0 0.0 2.0 50 50
- 0.45 0 1 cbr 512 ------- 0 0.0 2.0 50 50
r 0.453192 1 2 cbr 512 ------- 0 0.0 2.0 45 45
r 0.454096 0 1 cbr 512 ------- 0 0.0 2.0 48 48
+ 0.454096 1 2 cbr 512 ------- 0 0.0 2.0 48 48
- 0.454096 1 2 cbr 512 ------- 0 0.0 2.0 48 48
+ 0.455 0 1 cbr 512 ------- 0 0.0 2.0 51 51
- 0.455 0 1 cbr 512 ------- 0 0.0 2.0 51 51
r 0.458192 1 2 cbr 512 ------- 0 0.0 2.0 46 46
r 0.459096 0 1 cbr 512 ------- 0 0.0 2.0 49 49
+ 0.459096 1 2 cbr 512 ------- 0 0.0 2.0 49 49
- 0.459096 1 2 cbr 512 ------- 0 0.0 2.0 49 49
+ 0.46 0 1 cbr 512 ------- 0 0.0 2.0 52 52
- 0.46 0 1 cbr 512 ------- 0 0.0 2.0 52 52
r 0.463192 1 2 cbr 512 ------- 0 0.0 2.0 47 47
r 0.464096 0 1 cbr 512 ------- 0 0.0 2.0 50 50
+ 0.464096 1 2 cbr 512 ------- 0 0.0 2.0 50 50
- 0.464096 1 2 cbr 512 ------- 0 0.0 2.0 50 50
+ 0.465 0 1 cbr 512 ------- 0 0.0 2.0 53 53
- 0.465 0 1 cbr 512 ------- 0 0.0 2.0 53 53
r 0.468192 1 2 cbr 512 ------- 0 0.0 2.0 48 48
r 0.469096 0 1 cbr 512 ------- 0 0.0 2.0 51 51
+ 0.469096 1 2 cbr 512 ------- 0 0.0 2.0 51 51
- 0.469096 1 2 cbr 512 ------- 0 0.0 2.0 51 51
+ 0.47 0 1 cbr 512 ------- 0 0.0 2.0 54 54
- 0.47 0 1 cbr 512 ------- 0 0.0 2.0 54 54
r 0.473192 1 2 cbr 512 ------- 0 0.0 2.0 49 49
r 0.474096 0 1 cbr 512 ------- 0 0.0 2.0 52 52
+ 0.474096 1 2 cbr 512 ------- 0 0.0 2.0 52 52
- 0.474096 1 2 cbr 512 ------- 0 0.0 2.0 52 52
+ 0.475 0 1 cbr 512 ------- 0 0.0 2.0 55 55
- 0.475 0 1 cbr 512 ------- 0 0.0 2.0 55 55
r 0.478192 1 2 cbr 512 ------- 0 0.0 2.0 50 50
r 0.479096 0 1 cbr 512 ------- 0 0.0 2.0 53 53
+ 0.479096 1 2 cbr 512 ------- 0 0.0 2.0 53 53
- 0.479096 1 2 cbr 512 ------- 0 0.0 2.0 53 53
+ 0.48 0 1 cbr 512 ------- 0 0.0 2.0 56 56
- 0.48 0 1 cbr 512 ------- 0 0.0 2.0 56 56
r 0.483192 1 2 cbr 512 ------- 0 0.0 2.0 51 51
r 0.484096 0 1 cbr 512 ------- 0 0.0 2.0 54 54
+ 0.484096 1 2 cbr 512 ------- 0 0.0 2.0 54 54
- 0.484096 1 2 cbr 512 ------- 0 0.0 2.0 54 54
+ 0.485 0 1 cbr 512 ------- 0 0.0 2.0 57 57
- 0.485 0 1 cbr 512 ------- 0 0.0 2.0 57 57
r 0.488192 1 2 cbr 512 ------- 0 0.0 2.0 52 52
r 0.489096 0 1 cbr 512 ------- 0 0.0 2.0 55 55
+ 0.489096 1 2 cbr 512 ------- 0 0.0 2.0 55 55
- 0.489096 1 2 cbr 512 ------- 0 0.0 2.0 55 55
+ 0.49 0 1 cbr 512 ------- 0 0.0 2.0 58 58
- 0.49 0 1 cbr 512 ------- 0 0.0 2.0 58 58
r 0.493192 1 2 cbr 512 ------- 0 0.0 2.0 53 53
r 0.494096 0 1 cbr 512 ------- 0 0.0 2.0 56 56
+ 0.494096 1 2 cbr 512 ------- 0 0.0 2.0 56 56
- 0.494096 1 2 cbr 512 ------- 0 0.0 2.0 56 56
+ 0.495 0 1 cbr 512 ------- 0 0.0 2.0 59 59
- 0.495 0 1 cbr 512 ------- 0 0.0 2.0 59 59
r 0.498192 1 2 cbr 512 ------- 0 0.0 2.0 54 54
r 0.499096 0 1 cbr 512 ------- 0 0.0 2.0 57 57
+ 0.499096 1 2 cbr 512 ------- 0 0.0 2.0 57 57
- 0.499096 1 2 cbr 512 ------- 0 0.0 2.0 57 57
+ 0.5 0 1 cbr 512 ------- 0 0.0 2.0 60 60
- 0.5 0 1 cbr 512 ------- 0 0.0 2.0 60 60
r 0.503192 1 2 cbr 512 ------- 0 0.0 2.0 55 55
r 0.504096 0 1 cbr 512 ------- 0 0.0 2.0 58 58
+ 0.504096 1 2 cbr 512 ------- 0 0.0 2.0 58 58
- 0.504096 1 2 cbr 512 ------- 0 0.0 2.0 58 58
+ 0.505 0 1 cbr 512 ------- 0 0.0 2.0 61 61
- 0.505 0 1 cbr 512 ------- 0 0.0 2.0 61 61
r 0.508192 1 2 cbr 512 ------- 0 0.0 2.0 56 56
r 0.509096 0 1 cbr 512 ------- 0 0.0 2.0 59 59
+ 0.509096 1 2 cbr 512 ------- 0 0.0 2.0 59 59
- 0.509096 1 2 cbr 512 ------- 0 0.0 2.0 59 59
+ 0.51 0 1 cbr 512 ------- 0 0.0 2.0 62 62
- 0.51 0 1 cbr 512 ------- 0 0.0 2.0 62 62
r 0.513192 1 2 cbr 512 ------- 0 0.0 2.0 57 57
r 0.514096 0 1 cbr 512 ------- 0 0.0 2.0 60 60
+ 0.514096 1 2 cbr 512 ------- 0 0.0 2.0 60 60
- 0.514096 1 2 cbr 512 ------- 0 0.0 2.0 60 60
+ 0.515 0 1 cbr 512 ------- 0 0.0 2.0 63 63
- 0.515 0 1 cbr 512 ------- 0 0.0 2.0 63 63
r 0.518192 1 2 cbr 512 ------- 0 0.0 2.0 58 58
r 0.519096 0 1 cbr 512 ------- 0 0.0 2.0 61 61
+ 0.519096 1 2 cbr 512 ------- 0 0.0 2.0 61 61
- 0.519096 1 2 cbr 512 ------- 0 0.0 2.0 61 61
+ 0.52 0 1 cbr 512 ------- 0 0.0 2.0 64 64
- 0.52 0 1 cbr 512 ------- 0 0.0 2.0 64 64
r 0.523192 1 2 cbr 512 ------- 0 0.0 2.0 59 59
r 0.524096 0 1 cbr 512 ------- 0 0.0 2.0 62 62
+ 0.524096 1 2 cbr 512 ------- 0 0.0 2.0 62 62
- 0.524096 1 2 cbr 512 ------- 0 0.0 2.0 62 62
+ 0.525 0 1 cbr 512 ------- 0 0.0 2.0 65 65
- 0.525 0 1 cbr 512 ------- 0 0.0 2.0 65 65
r 0.528192 1 2 cbr 512 ------- 0 0.0 2.0 60 60
r 0.529096 0 1 cbr 512 ------- 0 0.0 2.0 63 63
+ 0.529096 1 2 cbr 512 ------- 0 0.0 2.0 63 63
- 0.529096 1 2 cbr 512 ------- 0 0.0 2.0 63 63
+ 0.53 0 1 cbr 512 ------- 0 0.0 2.0 66 66
- 0.53 0 1 cbr 512 ------- 0 0.0 2.0 66 66
r 0.533192 1 2 cbr 512 ------- 0 0.0 2.0 61 61
r 0.534096 0 1 cbr 512 ------- 0 0.0 2.0 64 64
+ 0.534096 1 2 cbr 512 ------- 0 0.0 2.0 64 64
- 0.534096 1 2 cbr 512 ------- 0 0.0 2.0 64 64
+ 0.535 0 1 cbr 512 ------- 0 0.0 2.0 67 67
- 0.535 0 1 cbr 512 ------- 0 0.0 2.0 67 67
r 0.538192 1 2 cbr 512 ------- 0 0.0 2.0 62 62
r 0.539096 0 1 cbr 512 ------- 0 0.0 2.0 65 65
+ 0.539096 1 2 cbr 512 ------- 0 0.0 2.0 65 65
- 0.539096 1 2 cbr 512 ------- 0 0.0 2.0 65 65
+ 0.54 0 1 cbr 512 ------- 0 0.0 2.0 68 68
- 0.54 0 1 cbr 512 ------- 0 0.0 2.0 68 68
r 0.543192 1 2 cbr 512 ------- 0 0.0 2.0 63 63
r 0.544096 0 1 cbr 512 ------- 0 0.0 2.0 66 66
+ 0.544096 1 2 cbr 512 ------- 0 0.0 2.0 66 66
- 0.544096 1 2 cbr 512 ------- 0 0.0 2.0 66 66
+ 0.545 0 1 cbr 512 ------- 0 0.0 2.0 69 69
- 0.545 0 1 cbr 512 ------- 0 0.0 2.0 69 69
r 0.548192 1 2 cbr 512 ------- 0 0.0 2.0 64 64
r 0.549096 0 1 cbr 512 ------- 0 0.0 2.0 67 67
+ 0.549096 1 2 cbr 512 ------- 0 0.0 2.0 67 67
- 0.549096 1 2 cbr 512 ------- 0 0.0 2.0 67 67
+ 0.55 0 1 cbr 512 ------- 0 0.0 2.0 70 70
- 0.55 0 1 cbr 512 ------- 0 0.0 2.0 70 70
r 0.553192 1 2 cbr 512 ------- 0 0.0 2.0 65 65
r 0.554096 0 1 cbr 512 ------- 0 0.0 2.0 68 68
+ 0.554096 1 2 cbr 512 ------- 0 0.0 2.0 68 68
- 0.554096 1 2 cbr 512 ------- 0 0.0 2.0 68 68
+ 0.555 0 1 cbr 512 ------- 0 0.0 2.0 71 71
- 0.555 0 1 cbr 512 ------- 0 0.0 2.0 71 71
r 0.558192 1 2 cbr 512 ------- 0 0.0 2.0 66 66
r 0.559096 0 1 cbr 512 ------- 0 0.0 2.0 69 69
+ 0.559096 1 2 cbr 512 ------- 0 0.0 2.0 69 69
- 0.559096 1 2 cbr 512 ------- 0 0.0 2.0 69 69
+ 0.56 0 1 cbr 512 ------- 0 0.0 2.0 72 72
- 0.56 0 1 cbr 512 ------- 0 0.0 2.0 72 72
r 0.563192 1 2 cbr 512 ------- 0 0.0 2.0 67 67
r 0.564096 0 1 cbr 512 ------- 0 0.0 2.0 70 70
+ 0.564096 1 2 cbr 512 ------- 0 0.0 2.0 70 70
- 0.564096 1 2 cbr 512 ------- 0 0.0 2.0 70 70
+ 0.565 0 1 cbr 512 ------- 0 0.0 2.0 73 73
- 0.565 0 1 cbr 512 ------- 0 0.0 2.0 73 73
r 0.568192 1 2 cbr 512 ------- 0 0.0 2.0 68 68
r 0.569096 0 1 cbr 512 ------- 0 0.0 2.0 71 71
+ 0.569096 1 2 cbr 512 ------- 0 0.0 2.0 71 71
- 0.569096 1 2 cbr 512 ------- 0 0.0 2.0 71 71
+ 0.57 0 1 cbr 512 ------- 0 0.0 2.0 74 74
- 0.57 0 1 cbr 512 ------- 0 0.0 2.0 74 74
r 0.573192 1 2 cbr 512 ------- 0 0.0 2.0 69 69
r 0.574096 0 1 cbr 512 ------- 0 0.0 2.0 72 72
+ 0.574096 1 2 cbr 512 ------- 0 0.0 2.0 72 72
- 0.574096 1 2 cbr 512 ------- 0 0.0 2.0 72 72
+ 0.575 0 1 cbr 512 ------- 0 0.0 2.0 75 75
- 0.575 0 1 cbr 512 ------- 0 0.0 2.0 75 75
r 0.578192 1 2 cbr 512 ------- 0 0.0 2.0 70 70
r 0.579096 0 1 cbr 512 ------- 0 0.0 2.0 73 73
+ 0.579096 1 2 cbr 512 ------- 0 0.0 2.0 73 73
- 0.579096 1 2 cbr 512 ------- 0 0.0 2.0 73 73
+ 0.58 0 1 cbr 512 ------- 0 0.0 2.0 76 76
- 0.58 0 1 cbr 512 ------- 0 0.0 2.0 76 76
r 0.583192 1 2 cbr 512 ------- 0 0.0 2.0 71 71
r 0.584096 0 1 cbr 512 ------- 0 0.0 2.0 74 74
+ 0.584096 1 2 cbr 512 ------- 0 0.0 2.0 74 74
- 0.584096 1 2 cbr 512 ------- 0 0.0 2.0 74 74
+ 0.585 0 1 cbr 512 ------- 0 0.0 2.0 77 77
- 0.585 0 1 cbr 512 ------- 0 0.0 2.0 77 77
r 0.588192 1 2 cbr 512 ------- 0 0.0 2.0 72 72
r 0.589096 0 1 cbr 512 ------- 0 0.0 2.0 75 75
+ 0.589096 1 2 cbr 512 ------- 0 0.0 2.0 75 75
- 0.589096 1 2 cbr 512 ------- 0 0.0 2.0 75 75
+ 0.59 0 1 cbr 512 ------- 0 0.0 2.0 78 78
- 0.59 0 1 cbr 512 ------- 0 0.0 2.0 78 78
r 0.593192 1 2 cbr 512 ------- 0 0.0 2.0 73 73
r 0.594096 0 1 cbr 512 ------- 0 0.0 2.0 76 76
+ 0.594096 1 2 cbr 512 ------- 0 0.0 2.0 76 76
- 0.594096 1 2 cbr 512 ------- 0 0.0 2.0 76 76
+ 0.595 0 1 cbr 512 ------- 0 0.0 2.0 79 79
- 0.595 0 1 cbr 512 ------- 0 0.0 2.0 79 79
r 0.598192 1 2 cbr 512 ------- 0 0.0 2.0 74 74
r 0.599096 0 1 cbr 512 ------- 0 0.0 2.0 77 77
+ 0.599096 1 2 cbr 512 ------- 0 0.0 2.0 77 77
- 0.599096 1 2 cbr 512 ------- 0 0.0 2.0 77 77
+ 0.6 0 1 cbr 512 ------- 0 0.0 2.0 80 80
- 0.6 0 1 cbr 512 ------- 0 0.0 2.0 80 80
r 0.603192 1 2 cbr 512 ------- 0 0.0 2.0 75 75
r 0.604096 0 1 cbr 512 ------- 0 0.0 2.0 78 78
+ 0.604096 1 2 cbr 512 ------- 0 0.0 2.0 78 78
- 0.604096 1 2 cbr 512 ------- 0 0.0 2.0 78 78
+ 0.605 0 1 cbr 512 ------- 0 0.0 2.0 81 81
- 0.605 0 1 cbr 512 ------- 0 0.0 2.0 81 81
r 0.608192 1 2 cbr 512 ------- 0 0.0 2.0 76 76
r 0.609096 0 1 cbr 512 ------- 0 0.0 2.0 79 79
+ 0.609096 1 2 cbr 512 ------- 0 0.0 2.0 79 79
- 0.609096 1 2 cbr 512 ------- 0 0.0 2.0 79 79
+ 0.61 0 1 cbr 512 ------- 0 0.0 2.0 82 82
- 0.61 0 1 cbr 512 ------- 0 0.0 2.0 82 82
r 0.613192 1 2 cbr 512 ------- 0 0.0 2.0 77 77
r 0.614096 0 1 cbr 512 ------- 0 0.0 2.0 80 80
+ 0.614096 1 2 cbr 512 ------- 0 0.0 2.0 80 80
- 0.614096 1 2 cbr 512 ------- 0 0.0 2.0 80 80
+ 0.615 0 1 cbr 512 ------- 0 0.0 2.0 83 83
- 0.615 0 1 cbr 512 ------- 0 0.0 2.0 83 83
r 0.618192 1 2 cbr 512 ------- 0 0.0 2.0 78 78
r 0.619096 0 1 cbr 512 ------- 0 0.0 2.0 81 81
+ 0.619096 1 2 cbr 512 ------- 0 0.0 2.0 81 81
- 0.619096 1 2 cbr 512 ------- 0 0.0 2.0 81 81
+ 0.62 0 1 cbr 512 ------- 0 0.0 2.0 84 84
- 0.62 0 1 cbr 512 ------- 0 0.0 2.0 84 84
r 0.623192 1 2 cbr 512 ------- 0 0.0 2.0 79 79
r 0.624096 0 1 cbr 512 ------- 0 0.0 2.0 82 82
+ 0.624096 1 2 cbr 512 ------- 0 0.0 2.0 82 82
- 0.624096 1 2 cbr 512 ------- 0 0.0 2.0 82 82
+ 0.625 0 1 cbr 512 ------- 0 0.0 2.0 85 85
- 0.625 0 1 cbr 512 ------- 0 0.0 2.0 85 85
r 0.628192 1 2 cbr 512 ------- 0 0.0 2.0 80 80
r 0.629096 0 1 cbr 512 ------- 0 0.0 2.0 83 83
+ 0.629096 1 2 cbr 512 ------- 0 0.0 2.0 83 83
- 0.629096 1 2 cbr 512 ------- 0 0.0 2.0 83 83
+ 0.63 0 1 cbr 512 ------- 0 0.0 2.0 86 86
- 0.63 0 1 cbr 512 ------- 0 0.0 2.0 86 86
r 0.633192 1 2 cbr 512 ------- 0 0.0 2.0 81 81
r 0.634096 0 1 cbr 512 ------- 0 0.0 2.0 84 84
+ 0.634096 1 2 cbr 512 ------- 0 0.0 2.0 84 84
- 0.634096 1 2 cbr 512 ------- 0 0.0 2.0 84 84
+ 0.635 0 1 cbr 512 ------- 0 0.0 2.0 87 87
- 0.635 0 1 cbr 512 ------- 0 0.0 2.0 87 87
r 0.638192 1 2 cbr 512 ------- 0 0.0 2.0 82 82
r 0.639096 0 1 cbr 512 ------- 0 0.0 2.0 85 85
+ 0.639096 1 2 cbr 512 ------- 0 0.0 2.0 85 85
- 0.639096 1 2 cbr 512 ------- 0 0.0 2.0 85 85
+ 0.64 0 1 cbr 512 ------- 0 0.0 2.0 88 88
- 0.64 0 1 cbr 512 ------- 0 0.0 2.0 88 88
r 0.643192 1 2 cbr 512 ------- 0 0.0 2.0 83 83
r 0.644096 0 1 cbr 512 ------- 0 0.0 2.0 86 86
+ 0.644096 1 2 cbr 512 ------- 0 0.0 2.0 86 86
- 0.644096 1 2 cbr 512 ------- 0 0.0 2.0 86 86
+ 0.645 0 1 cbr 512 ------- 0 0.0 2.0 89 89
- 0.645 0 1 cbr 512 ------- 0 0.0 2.0 89 89
r 0.648192 1 2 cbr 512 ------- 0 0.0 2.0 84 84
r 0.649096 0 1 cbr 512 ------- 0 0.0 2.0 87 87
+ 0.649096 1 2 cbr 512 ------- 0 0.0 2.0 87 87
- 0.649096 1 2 cbr 512 ------- 0 0.0 2.0 87 87
+ 0.65 0 1 cbr 512 ------- 0 0.0 2.0 90 90
- 0.65 0 1 cbr 512 ------- 0 0.0 2.0 90 90
r 0.653192 1 2 cbr 512 ------- 0 0.0 2.0 85 85
r 0.654096 0 1 cbr 512 ------- 0 0.0 2.0 88 88
+ 0.654096 1 2 cbr 512 ------- 0 0.0 2.0 88 88
- 0.654096 1 2 cbr 512 ------- 0 0.0 2.0 88 88
+ 0.655 0 1 cbr 512 ------- 0 0.0 2.0 91 91
- 0.655 0 1 cbr 512 ------- 0 0.0 2.0 91 91
r 0.658192 1 2 cbr 512 ------- 0 0.0 2.0 86 86
r 0.659096 0 1 cbr 512 ------- 0 0.0 2.0 89 89
+ 0.659096 1 2 cbr 512 ------- 0 0.0 2.0 89 89
- 0.659096 1 2 cbr 512 ------- 0 0.0 2.0 89 89
+ 0.66 0 1 cbr 512 ------- 0 0.0 2.0 92 92
- 0.66 0 1 cbr 512 ------- 0 0.0 2.0 92 92
r 0.663192 1 2 cbr 512 ------- 0 0.0 2.0 87 87
r 0.664096 0 1 cbr 512 ------- 0 0.0 2.0 90 90
+ 0.664096 1 2 cbr 512 ------- 0 0.0 2.0 90 90
- 0.664096 1 2 cbr 512 ------- 0 0.0 2.0 90 90
+ 0.665 0 1 cbr 512 ------- 0 0.0 2.0 93 93
- 0.665 0 1 cbr 512 ------- 0 0.0 2.0 93 93
r 0.668192 1 2 cbr 512 ------- 0 0.0 2.0 88 88
r 0.669096 0 1 cbr 512 ------- 0 0.0 2.0 91 91
+ 0.669096 1 2 cbr 512 ------- 0 0.0 2.0 91 91
- 0.669096 1 2 cbr 512 ------- 0 0.0 2.0 91 91
+ 0.67 0 1 cbr 512 ------- 0 0.0 2.0 94 94
- 0.67 0 1 cbr 512 ------- 0 0.0 2.0 94 94
r 0.673192 1 2 cbr 512 ------- 0 0.0 2.0 89 89
r 0.674096 0 1 cbr 512 ------- 0 0.0 2.0 92 92
+ 0.674096 1 2 cbr 512 ------- 0 0.0 2.0 92 92
- 0.674096 1 2 cbr 512 ------- 0 0.0 2.0 92 92
+ 0.675 0 1 cbr 512 ------- 0 0.0 2.0 95 95
- 0.675 0 1 cbr 512 ------- 0 0.0 2.0 95 95
r 0.678192 1 2 cbr 512 ------- 0 0.0 2.0 90 90
r 0.679096 0 1 cbr 512 ------- 0 0.0 2.0 93 93
+ 0.679096 1 2 cbr 512 ------- 0 0.0 2.0 93 93
- 0.679096 1 2 cbr 512 ------- 0 0.0 2.0 93 93
+ 0.68 0 1 cbr 512 ------- 0 0.0 2.0 96 96
- 0.68 0 1 cbr 512 ------- 0 0.0 2.0 96 96
r 0.683192 1 2 cbr 512 ------- 0 0.0 2.0 91 91
r 0.684096 0 1 cbr 512 ------- 0 0.0 2.0 94 94
+ 0.684096 1 2 cbr 512 ------- 0 0.0 2.0 94 94
- 0.684096 1 2 cbr 512 ------- 0 0.0 2.0 94 94
+ 0.685 0 1 cbr 512 ------- 0 0.0 2.0 97 97
- 0.685 0 1 cbr 512 ------- 0 0.0 2.0 97 97
r 0.688192 1 2 cbr 512 ------- 0 0.0 2.0 92 92
r 0.689096 0 1 cbr 512 ------- 0 0.0 2.0 95 95
+ 0.689096 1 2 cbr 512 ------- 0 0.0 2.0 95 95
- 0.689096 1 2 cbr 512 ------- 0 0.0 2.0 95 95
+ 0.69 0 1 cbr 512 ------- 0 0.0 2.0 98 98
- 0.69 0 1 cbr 512 ------- 0 0.0 2.0 98 98
r 0.693192 1 2 cbr 512 ------- 0 0.0 2.0 93 93
r 0.694096 0 1 cbr 512 ------- 0 0.0 2.0 96 96
+ 0.694096 1 2 cbr 512 ------- 0 0.0 2.0 96 96
- 0.694096 1 2 cbr 512 ------- 0 0.0 2.0 96 96
+ 0.695 0 1 cbr 512 ------- 0 0.0 2.0 99 99
- 0.695 0 1 cbr 512 ------- 0 0.0 2.0 99 99
r 0.698192 1 2 cbr 512 ------- 0 0.0 2.0 94 94
r 0.699096 0 1 cbr 512 ------- 0 0.0 2.0 97 97
+ 0.699096 1 2 cbr 512 ------- 0 0.0 2.0 97 97
- 0.699096 1 2 cbr 512 ------- 0 0.0 2.0 97 97
+ 0.7 0 1 cbr 512 ------- 0 0.0 2.0 100 100
- 0.7 0 1 cbr 512 ------- 0 0.0 2.0 100 100
r 0.703192 1 2 cbr 512 ------- 0 0.0 2.0 95 95
r 0.704096 0 1 cbr 512 ------- 0 0.0 2.0 98 98
+ 0.704096 1 2 cbr 512 ------- 0 0.0 2.0 98 98
- 0.704096 1 2 cbr 512 ------- 0 0.0 2.0 98 98
+ 0.705 0 1 cbr 512 ------- 0 0.0 2.0 101 101
- 0.705 0 1 cbr 512 ------- 0 0.0 2.0 101 101
r 0.708192 1 2 cbr 512 ------- 0 0.0 2.0 96 96
r 0.709096 0 1 cbr 512 ------- 0 0.0 2.0 99 99
+ 0.709096 1 2 cbr 512 ------- 0 0.0 2.0 99 99
- 0.709096 1 2 cbr 512 ------- 0 0.0 2.0 99 99
+ 0.71 0 1 cbr 512 ------- 0 0.0 2.0 102 102
- 0.71 0 1 cbr 512 ------- 0 0.0 2.0 102 102
r 0.713192 1 2 cbr 512 ------- 0 0.0 2.0 97 97
r 0.714096 0 1 cbr 512 ------- 0 0.0 2.0 100 100
+ 0.714096 1 2 cbr 512 ------- 0 0.0 2.0 100 100
- 0.714096 1 2 cbr 512 ------- 0 0.0 2.0 100 100
+ 0.715 0 1 cbr 512 ------- 0 0.0 2.0 103 103
- 0.715 0 1 cbr 512 ------- 0 0.0 2.0 103 103
r 0.718192 1 2 cbr 512 ------- 0 0.0 2.0 98 98
r 0.719096 0 1 cbr 512 ------- 0 0.0 2.0 101 101
+ 0.719096 1 2 cbr 512 ------- 0 0.0 2.0 101 101
- 0.719096 1 2 cbr 512 ------- 0 0.0 2.0 101 101
+ 0.72 0 1 cbr 512 ------- 0 0.0 2.0 104 104
- 0.72 0 1 cbr 512 ------- 0 0.0 2.0 104 104
r 0.723192 1 2 cbr 512 ------- 0 0.0 2.0 99 99
r 0.724096 0 1 cbr 512 ------- 0 0.0 2.0 102 102
+ 0.724096 1 2 cbr 512 ------- 0 0.0 2.0 102 102
- 0.724096 1 2 cbr 512 ------- 0 0.0 2.0 102 102
+ 0.725 0 1 cbr 512 ------- 0 0.0 2.0 105 105
- 0.725 0 1 cbr 512 ------- 0 0.0 2.0 105 105
r 0.728192 1 2 cbr 512 ------- 0 0.0 2.0 100 100
r 0.729096 0 1 cbr 512 ------- 0 0.0 2.0 103 103
+ 0.729096 1 2 cbr 512 ------- 0 0.0 2.0 103 103
- 0.729096 1 2 cbr 512 ------- 0 0.0 2.0 103 103
+ 0.73 0 1 cbr 512 ------- 0 0.0 2.0 106 106
- 0.73 0 1 cbr 512 ------- 0 0.0 2.0 106 106
r 0.733192 1 2 cbr 512 ------- 0 0.0 2.0 101 101
r 0.734096 0 1 cbr 512 ------- 0 0.0 2.0 104 104
+ 0.734096 1 2 cbr 512 ------- 0 0.0 2.0 104 104
- 0.734096 1 2 cbr 512 ------- 0 0.0 2.0 104 104
+ 0.735 0 1 cbr 512 ------- 0 0.0 2.0 107 107
- 0.735 0 1 cbr 512 ------- 0 0.0 2.0 107 107
r 0.738192 1 2 cbr 512 ------- 0 0.0 2.0 102 102
r 0.739096 0 1 cbr 512 ------- 0 0.0 2.0 105 105
+ 0.739096 1 2 cbr 512 ------- 0 0.0 2.0 105 105
- 0.739096 1 2 cbr 512 ------- 0 0.0 2.0 105 105
+ 0.74 0 1 cbr 512 ------- 0 0.0 2.0 108 108
- 0.74 0 1 cbr 512 ------- 0 0.0 2.0 108 108
r 0.743192 1 2 cbr 512 ------- 0 0.0 2.0 103 103
r 0.744096 0 1 cbr 512 ------- 0 0.0 2.0 106 106
+ 0.744096 1 2 cbr 512 ------- 0 0.0 2.0 106 106
- 0.744096 1 2 cbr 512 ------- 0 0.0 2.0 106 106
+ 0.745 0 1 cbr 512 ------- 0 0.0 2.0 109 109
- 0.745 0 1 cbr 512 ------- 0 0.0 2.0 109 109
r 0.748192 1 2 cbr 512 ------- 0 0.0 2.0 104 104
r 0.749096 0 1 cbr 512 ------- 0 0.0 2.0 107 107
+ 0.749096 1 2 cbr 512 ------- 0 0.0 2.0 107 107
- 0.749096 1 2 cbr 512 ------- 0 0.0 2.0 107 107
+ 0.75 0 1 cbr 512 ------- 0 0.0 2.0 110 110
- 0.75 0 1 cbr 512 ------- 0 0.0 2.0 110 110
r 0.753192 1 2 cbr 512 ------- 0 0.0 2.0 105 105
r 0.754096 0 1 cbr 512 ------- 0 0.0 2.0 108 108
+ 0.754096 1 2 cbr 512 ------- 0 0.0 2.0 108 108
- 0.754096 1 2 cbr 512 ------- 0 0.0 2.0 108 108