V -t * -v 1.0a5 -a 0
A -t * -n 1 -p 0 -o 0x7fffffff -c 30 -a 1
A -t * -h 1 -m 1073741823 -s 0
n -t * -a 0 -s 0 -S UP -v circle -c black -i black
n -t * -a 1 -s 1 -S UP -v circle -c black -i black
n -t * -a 2 -s 2 -S UP -v circle -c black -i black
n -t * -a 3 -s 3 -S UP -v circle -c black -i black
l -t * -s 0 -d 2 -S UP -r 2000000 -D 0.01 -c black
l -t * -s 1 -d 2 -S UP -r 2000000 -D 0.01 -c black
l -t * -s 2 -d 3 -S UP -r 100000 -D 0.01 -c black
+ -t 0.5 -s 0 -d 2 -p tcp -e 40 -c 0 -i 0 -a 0 -x {0.0 3.0 0 ------- null}
- -t 0.5 -s 0 -d 2 -p tcp -e 40 -c 0 -i 0 -a 0 -x {0.0 3.0 0 ------- null}
h -t 0.5 -s 0 -d 2 -p tcp -e 40 -c 0 -i 0 -a 0 -x {0.0 3.0 -1 ------- null}
r -t 0.51016 -s 0 -d 2 -p tcp -e 40 -c 0 -i 0 -a 0 -x {0.0 3.0 0 ------- null}
+ -t 0.51016 -s 2 -d 3 -p tcp -e 40 -c 0 -i 0 -a 0 -x {0.0 3.0 0 ------- null}
- -t 0.51016 -s 2 -d 3 -p tcp -e 40 -c 0 -i 0 -a 0 -x {0.0 3.0 0 ------- null}
h -t 0.51016 -s 2 -d 3 -p tcp -e 40 -c 0 -i 0 -a 0 -x {0.0 3.0 -1 ------- null}
r -t 0.52336 -s 2 -d 3 -p tcp -e 40 -c 0 -i 0 -a 0 -x {0.0 3.0 0 ------- null}
+ -t 0.52336 -s 3 -d 2 -p ack -e 40 -c 0 -i 1 -a 0 -x {3.0 0.0 0 ------- null}
- -t 0.52336 -s 3 -d 2 -p ack -e 40 -c 0 -i 1 -a 0 -x {3.0 0.0 0 ------- null}
h -t 0.52336 -s 3 -d 2 -p ack -e 40 -c 0 -i 1 -a 0 -x {3.0 0.0 -1 ------- null}
r -t 0.53656 -s 3 -d 2 -p ack -e 40 -c 0 -i 1 -a 0 -x {3.0 0.0 0 ------- null}
+ -t 0.53656 -s 2 -d 0 -p ack -e 40 -c 0 -i 1 -a 0 -x {3.0 0.0 0 ------- null}
- -t 0.53656 -s 2 -d 0 -p ack -e 40 -c 0 -i 1 -a 0 -x {3.0 0.0 0 ------- null}
h -t 0.53656 -s 2 -d 0 -p ack -e 40 -c 0 -i 1 -a 0 -x {3.0 0.0 -1 ------- null}
r -t 0.54672 -s 2 -d 0 -p ack -e 40 -c 0 -i 1 -a 0 -x {3.0 0.0 0 ------- null}
+ -t 0.54672 -s 0 -d 2 -p tcp -e 1040 -c 0 -i 2 -a 0 -x {0.0 3.0 1 ------- null}
- -t 0.54672 -s 0 -d 2 -p tcp -e 1040 -c 0 -i 2 -a 0 -x {0.0 3.0 1 ------- null}
h -t 0.54672 -s 0 -d 2 -p tcp -e 1040 -c 0 -i 2 -a 0 -x {0.0 3.0 -1 ------- null}
+ -t 0.54672 -s 0 -d 2 -p tcp -e 1040 -c 0 -i 3 -a 0 -x {0.0 3.0 2 ------- null}
- -t 0.55088 -s 0 -d 2 -p tcp -e 1040 -c 0 -i 3 -a 0 -x {0.0 3.0 2 ------- null}
h -t 0.55088 -s 0 -d 2 -p tcp -e 1040 -c 0 -i 3 -a 0 -x {0.0 3.0 -1 ------- null}
r -t 0.56088 -s 0 -d 2 -p tcp -e 1040 -c 0 -i 2 -a 0 -x {0.0 3.0 1 ------- null}
+ -t 0.56088 -s 2 -d 3 -p tcp -e 1040 -c 0 -i 2 -a 0 -x {0.0 3.0 1 ------- null}
- -t 0.56088 -s 2 -d 3 -p tcp -e 1040 -c 0 -i 2 -a 0 -x {0.0 3.0 1 ------- null}
h -t 0.56088 -s 2 -d 3 -p tcp -e 1040 -c 0 -i 2 -a 0 -x {0.0 3.0 -1 ------- null}
r -t 0.56504 -s 0 -d 2 -p tcp -e 1040 -c 0 -i 3 -a 0 -x {0.0 3.0 2 ------- null}
+ -t 0.56504 -s 2 -d 3 -p tcp -e 1040 -c 0 -i 3 -a 0 -x {0.0 3.0 2 ------- null}
- -t 0.64408 -s 2 -d 3 -p tcp -e 1040 -c 0 -i 3 -a 0 -x {0.0 3.0 2 ------- null}
h -t 0.64408 -s 2 -d 3 -p tcp -e 1040 -c 0 -i 3 -a 0 -x {0.0 3.0 -1 ------- null}
r -t 0.65408 -s 2 -d 3 -p tcp -e 1040 -c 0 -i 2 -a 0 -x {0.0 3.0 1 ------- null}
+ -t 0.65408 -s 3 -d 2 -p ack -e 40 -c 0 -i 4 -a 0 -x {3.0 0.0 1 ------- null}
- -t 0.65408 -s 3 -d 2 -p ack -e 40 -c 0 -i 4 -a 0 -x {3.0 0.0 1 ------- null}
h -t 0.65408 -s 3 -d 2 -p ack -e 40 -c 0 -i 4 -a 0 -x {3.0 0.0 -1 ------- null}
r -t 0.66728 -s 3 -d 2 -p ack -e 40 -c 0 -i 4 -a 0 -x {3.0 0.0 1 ------- null}
+ -t 0.66728 -s 2 -d 0 -p ack -e 40 -c 0 -i 4 -a 0 -x {3.0 0.0 1 ------- null}
- -t 0.66728 -s 2 -d 0 -p ack -e 40 -c 0 -i 4 -a 0 -x {3.0 0.0 1 ------- null}
h -t 0.66728 -s 2 -d 0 -p ack -e 40 -c 0 -i 4 -a 0 -x {3.0 0.0 -1 ------- null}
r -t 0.67744 -s 2 -d 0 -p ack -e 40 -c 0 -i 4 -a 0 -x {3.0 0.0 1 ------- null}
+ -t 0.67744 -s 0 -d 2 -p tcp -e 1040 -c 0 -i 5 -a 0 -x {0.0 3.0 3 ------- null}
- -t 0.67744 -s 0 -d 2 -p tcp -e 1040 -c 0 -i 5 -a 0 -x {0.0 3.0 3 ------- null}
h -t 0.67744 -s 0 -d 2 -p tcp -e 1040 -c 0 -i 5 -a 0 -x {0.0 3.0 -1 ------- null}
+ -t 0.67744 -s 0 -d 2 -p tcp -e 1040 -c 0 -i 6 -a 0 -x {0.0 3.0 4 ------- null}
- -t 0.6816 -s 0 -d 2 -p tcp -e 1040 -c 0 -i 6 -a 0 -x {0.0 3.0 4 ------- null}
h -t 0.6816 -s 0 -d 2 -p tcp -e 1040 -c 0 -i 6 -a 0 -x {0.0 3.0 -1 ------- null}
r -t 0.6916 -s 0 -d 2 -p tcp -e 1040 -c 0 -i 5 -a 0 -x {0.0 3.0 3 ------- null}
+ -t 0.6916 -s 2 -d 3 -p tcp -e 1040 -c 0 -i 5 -a 0 -x {0.0 3.0 3 ------- null}
r -t 0.69576 -s 0 -d 2 -p tcp -e 1040 -c 0 -i 6 -a 0 -x {0.0 3.0 4 ------- null}
+ -t 0.69576 -s 2 -d 3 -p tcp -e 1040 -c 0 -i 6 -a 0 -x {0.0 3.0 4 ------- null}
- -t 0.72728 -s 2 -d 3 -p tcp -e 1040 -c 0 -i 5 -a 0 -x {0.0 3.0 3 ------- null}
h -t 0.72728 -s 2 -d 3 -p tcp -e 1040 -c 0 -i 5 -a 0 -x {0.0 3.0 -1 ------- null}
r -t 0.73728 -s 2 -d 3 -p tcp -e 1040 -c 0 -i 3 -a 0 -x {0.0 3.0 2 ------- null}
+ -t 0.73728 -s 3 -d 2 -p ack -e 40 -c 0 -i 7 -a 0 -x {3.0 0.0 2 ------- null}
- -t 0.73728 -s 3 -d 2 -p ack -e 40 -c 0 -i 7 -a 0 -x {3.0 0.0 2 ------- null}
h -t 0.73728 -s 3 -d 2 -p ack -e 40 -c 0 -i 7 -a 0 -x {3.0 0.0 -1 ------- null}
r -t 0.75048 -s 3 -d 2 -p ack -e 40 -c 0 -i 7 -a 0 -x {3.0 0.0 2 ------- null}
+ -t 0.75048 -s 2 -d 0 -p ack -e 40 -c 0 -i 7 -a 0 -x {3.0 0.0 2 ------- null}
- -t 0.75048 -s 2 -d 0 -p ack -e 40 -c 0 -i 7 -a 0 -x {3.0 0.0 2 ------- null}
h -t 0.75048 -s 2 -d 0 -p ack -e 40 -c 0 -i 7 -a 0 -x {3.0 0.0 -1 ------- null}
r -t 0.76064 -s 2 -d 0 -p ack -e 40 -c 0 -i 7 -a 0 -x {3.0 0.0 2 ------- null}
+ -t 0.76064 -s 0 -d 2 -p tcp -e 1040 -c 0 -i 8 -a 0 -x {0.0 3.0 5 ------- null}
- -t 0.76064 -s 0 -d 2 -p tcp -e 1040 -c 0 -i 8 -a 0 -x {0.0 3.0 5 ------- null}
h -t 0.76064 -s 0 -d 2 -p tcp -e 1040 -c 0 -i 8 -a 0 -x {0.0 3.0 -1 ------- null}
+ -t 0.76064 -s 0 -d 2 -p tcp -e 1040 -c 0 -i 9 -a 0 -x {0.0 3.0 6 ------- null}
- -t 0.7648 -s 0 -d 2 -p tcp -e 1040 -c 0 -i 9 -a 0 -x {0.0 3.0 6 ------- null}
h -t 0.7648 -s 0 -d 2 -p tcp -e 1040 -c 0 -i 9 -a 0 -x {0.0 3.0 -1 ------- null}
r -t 0.7748 -s 0 -d 2 -p tcp -e 1040 -c 0 -i 8 -a 0 -x {0.0 3.0 5 ------- null}
+ -t 0.7748 -s 2 -d 3 -p tcp -e 1040 -c 0 -i 8 -a 0 -x {0.0 3.0 5 ------- null}
r -t 0.77896 -s 0 -d 2 -p tcp -e 1040 -c 0 -i 9 -a 0 -x {0.0 3.0 6 ------- null}
+ -t 0.77896 -s 2 -d 3 -p tcp -e 1040 -c 0 -i 9 -a 0 -x {0.0 3.0 6 ------- null}
- -t 0.81048 -s 2 -d 3 -p tcp -e 1040 -c 0 -i 6 -a 0 -x {0.0 3.0 4 ------- null}
h -t 0.81048 -s 2 -d 3 -p tcp -e 1040 -c 0 -i 6 -a 0 -x {0.0 3.0 -1 ------- null}
r -t 0.82048 -s 2 -d 3 -p tcp -e 1040 -c 0 -i 5 -a 0 -x {0.0 3.0 3 ------- null}
+ -t 0.82048 -s 3 -d 2 -p ack -e 40 -c 0 -i 10 -a 0 -x {3.0 0.0 3 ------- null}
- -t 0.82048 -s 3 -d 2 -p ack -e 40 -c 0 -i 10 -a 0 -x {3.0 0.0 3 ------- null}
h -t 0.82048 -s 3 -d 2 -p ack -e 40 -c 0 -i 10 -a 0 -x {3.0 0.0 -1 ------- null}
r -t 0.83368 -s 3 -d 2 -p ack -e 40 -c 0 -i 10 -a 0 -x {3.0 0.0 3 ------- null}
+ -t 0.83368 -s 2 -d 0 -p ack -e 40 -c 0 -i 10 -a 0 -x {3.0 0.0 3 ------- null}
- -t 0.83368 -s 2 -d 0 -p ack -e 40 -c 0 -i 10 -a 0 -x {3.0 0.0 3 ------- null}
h -t 0.83368 -s 2 -d 0 -p ack -e 40 -c 0 -i 10 -a 0 -x {3.0 0.0 -1 ------- null}
r -t 0.84384 -s 2 -d 0 -p ack -e 40 -c 0 -i 10 -a 0 -x {3.0 0.0 3 ------- null}
+ -t 0.84384 -s 0 -d 2 -p tcp -e 1040 -c 0 -i 11 -a 0 -x {0.0 3.0 7 ------- null}
- -t 0.84384 -s 0 -d 2 -p tcp -e 1040 -c 0 -i 11 -a 0 -x {0.0 3.0 7 ------- null}
h -t 0.84384 -s 0 -d 2 -p tcp -e 1040 -c 0 -i 11 -a 0 -x {0.0 3.0 -1 ------- null}
+ -t 0.84384 -s 0 -d 2 -p tcp -e 1040 -c 0 -i 12 -a 0 -x {0.0 3.0 8 ------- null}
- -t 0.848 -s 0 -d 2 -p tcp -e 1040 -c 0 -i 12 -a 0 -x {0.0 3.0 8 ------- null}
h -t 0.848 -s 0 -d 2 -p tcp -e 1040 -c 0 -i 12 -a 0 -x {0.0 3.0 -1 ------- null}
r -t 0.858 -s 0 -d 2 -p tcp -e 1040 -c 0 -i 11 -a 0 -x {0.0 3.0 7 ------- null}
+ -t 0.858 -s 2 -d 3 -p tcp -e 1040 -c 0 -i 11 -a 0 -x {0.0 3.0 7 ------- null}
r -t 0.86216 -s 0 -d 2 -p tcp -e 1040 -c 0 -i 12 -a 0 -x {0.0 3.0 8 ------- null}
+ -t 0.86216 -s 2 -d 3 -p tcp -e 1040 -c 0 -i 12 -a 0 -x {0.0 3.0 8 ------- null}
- -t 0.89368 -s 2 -d 3 -p tcp -e 1040 -c 0 -i 8 -a 0 -x {0.0 3.0 5 ------- null}
h -t 0.89368 -s 2 -d 3 -p tcp -e 1040 -c 0 -i 8 -a 0 -x {0.0 3.0 -1 ------- null}
r -t 0.90368 -s 2 -d 3 -p tcp -e 1040 -c 0 -i 6 -a 0 -x {0.0 3.0 4 ------- null}
+ -t 0.90368 -s 3 -d 2 -p ack -e 40 -c 0 -i 13 -a 0 -x {3.0 0.0 4 ------- null}
- -t 0.90368 -s 3 -d 2 -p ack -e 40 -c 0 -i 13 -a 0 -x {3.0 0.0 4 ------- null}
h -t 0.90368 -s 3 -d 2 -p ack -e 40 -c 0 -i 13 -a 0 -x {3.0 0.0 -1 ------- null}
r -t 0.91688 -s 3 -d 2 -p ack -e 40 -c 0 -i 13 -a 0 -x {3.0 0.0 4 ------- null}
+ -t 0.91688 -s 2 -d 0 -p ack -e 40 -c 0 -i 13 -a 0 -x {3.0 0.0 4 ------- null}
- -t 0.91688 -s 2 -d 0 -p ack -e 40 -c 0 -i 13 -a 0 -x {3.0 0.0 4 ------- null}
h -t 0.91688 -s 2 -d 0 -p ack -e 40 -c 0 -i 13 -a 0 -x {3.0 0.0 -1 ------- null}
r -t 0.92704 -s 2 -d 0 -p ack -e 40 -c 0 -i 13 -a 0 -x {3.0 0.0 4 ------- null}
+ -t 0.92704 -s 0 -d 2 -p tcp -e 1040 -c 0 -i 14 -a 0 -x {0.0 3.0 9 ------- null}
- -t 0.92704 -s 0 -d 2 -p tcp -e 1040 -c 0 -i 14 -a 0 -x {0.0 3.0 9 ------- null}
h -t 0.92704 -s 0 -d 2 -p tcp -e 1040 -c 0 -i 14 -a 0 -x {0.0 3.0 -1 ------- null}
+ -t 0.92704 -s 0 -d 2 -p tcp -e 1040 -c 0 -i 15 -a 0 -x {0.0 3.0 10 ------- null}
- -t 0.9312 -s 0 -d 2 -p tcp -e 1040 -c 0 -i 15 -a 0 -x {0.0 3.0 10 ------- null}
h -t 0.9312 -s 0 -d 2 -p tcp -e 1040 -c 0 -i 15 -a 0 -x {0.0 3.0 -1 ------- null}
r -t 0.941199999999999 -s 0 -d 2 -p tcp -e 1040 -c 0 -i 14 -a 0 -x {0.0 3.0 9 ------- null}
+ -t 0.941199999999999 -s 2 -d 3 -p tcp -e 1040 -c 0 -i 14 -a 0 -x {0.0 3.0 9 ------- null}
r -t 0.94536 -s 0 -d 2 -p tcp -e 1040 -c 0 -i 15 -a 0 -x {0.0 3.0 10 ------- null}
+ -t 0.94536 -s 2 -d 3 -p tcp -e 1040 -c 0 -i 15 -a 0 -x {0.0 3.0 10 ------- null}
- -t 0.97688 -s 2 -d 3 -p tcp -e 1040 -c 0 -i 9 -a 0 -x {0.0 3.0 6 ------- null}
h -t 0.97688 -s 2 -d 3 -p tcp -e 1040 -c 0 -i 9 -a 0 -x {0.0 3.0 -1 ------- null}
r -t 0.98688 -s 2 -d 3 -p tcp -e 1040 -c 0 -i 8 -a 0 -x {0.0 3.0 5 ------- null}
+ -t 0.98688 -s 3 -d 2 -p ack -e 40 -c 0 -i 16 -a 0 -x {3.0 0.0 5 ------- null}
- -t 0.98688 -s 3 -d 2 -p ack -e 40 -c 0 -i 16 -a 0 -x {3.0 0.0 5 ------- null}
h -t 0.98688 -s 3 -d 2 -p ack -e 40 -c 0 -i 16 -a 0 -x {3.0 0.0 -1 ------- null}
+ -t 1 -s 1 -d 2 -p cbr -e 500 -c 0 -i 17 -a 0 -x {1.0 3.1 0 ------- null}
- -t 1 -s 1 -d 2 -p cbr -e 500 -c 0 -i 17 -a 0 -x {1.0 3.1 0 ------- null}
h -t 1 -s 1 -d 2 -p cbr -e 500 -c 0 -i 17 -a 0 -x {1.0 3.1 -1 ------- null}
r -t 1.00008 -s 3 -d 2 -p ack -e 40 -c 0 -i 16 -a 0 -x {3.0 0.0 5 ------- null}
+ -t 1.00008 -s 2 -d 0 -p ack -e 40 -c 0 -i 16 -a 0 -x {3.0 0.0 5 ------- null}
- -t 1.00008 -s 2 -d 0 -p ack -e 40 -c 0 -i 16 -a 0 -x {3.0 0.0 5 ------- null}
h -t 1.00008 -s 2 -d 0 -p ack -e 40 -c 0 -i 16 -a 0 -x {3.0 0.0 -1 ------- null}
+ -t 1.005 -s 1 -d 2 -p cbr -e 500 -c 0 -i 18 -a 0 -x {1.0 3.1 1 ------- null}
- -t 1.005 -s 1 -d 2 -p cbr -e 500 -c 0 -i 18 -a 0 -x {1.0 3.1 1 ------- null}
h -t 1.005 -s 1 -d 2 -p cbr -e 500 -c 0 -i 18 -a 0 -x {1.0 3.1 -1 ------- null}
+ -t 1.01 -s 1 -d 2 -p cbr -e 500 -c 0 -i 19 -a 0 -x {1.0 3.1 2 ------- null}
- -t 1.01 -s 1 -d 2 -p cbr -e 500 -c 0 -i 19 -a 0 -x {1.0 3.1 2 ------- null}
h -t 1.01 -s 1 -d 2 -p cbr -e 500 -c 0 -i 19 -a 0 -x {1.0 3.1 -1 ------- null}
r -t 1.01024 -s 2 -d 0 -p ack -e 40 -c 0 -i 16 -a 0 -x {3.0 0.0 5 ------- null}
+ -t 1.01024 -s 0 -d 2 -p tcp -e 1040 -c 0 -i 20 -a 0 -x {0.0 3.0 11 ------- null}
- -t 1.01024 -s 0 -d 2 -p tcp -e 1040 -c 0 -i 20 -a 0 -x {0.0 3.0 11 ------- null}
h -t 1.01024 -s 0 -d 2 -p tcp -e 1040 -c 0 -i 20 -a 0 -x {0.0 3.0 -1 ------- null}
+ -t 1.01024 -s 0 -d 2 -p tcp -e 1040 -c 0 -i 21 -a 0 -x {0.0 3.0 12 ------- null}
r -t 1.012 -s 1 -d 2 -p cbr -e 500 -c 0 -i 17 -a 0 -x {1.0 3.1 0 ------- null}
+ -t 1.012 -s 2 -d 3 -p cbr -e 500 -c 0 -i 17 -a 0 -x {1.0 3.1 0 ------- null}
- -t 1.0144 -s 0 -d 2 -p tcp -e 1040 -c 0 -i 21 -a 0 -x {0.0 3.0 12 ------- null}
h -t 1.0144 -s 0 -d 2 -p tcp -e 1040 -c 0 -i 21 -a 0 -x {0.0 3.0 -1 ------- null}
+ -t 1.015 -s 1 -d 2 -p cbr -e 500 -c 0 -i 22 -a 0 -x {1.0 3.1 3 ------- null}
- -t 1.015 -s 1 -d 2 -p cbr -e 500 -c 0 -i 22 -a 0 -x {1.0 3.1 3 ------- null}
h -t 1.015 -s 1 -d 2 -p cbr -e 500 -c 0 -i 22 -a 0 -x {1.0 3.1 -1 ------- null}
r -t 1.017 -s 1 -d 2 -p cbr -e 500 -c 0 -i 18 -a 0 -x {1.0 3.1 1 ------- null}
+ -t 1.017 -s 2 -d 3 -p cbr -e 500 -c 0 -i 18 -a 0 -x {1.0 3.1 1 ------- null}
+ -t 1.02 -s 1 -d 2 -p cbr -e 500 -c 0 -i 23 -a 0 -x {1.0 3.1 4 ------- null}
- -t 1.02 -s 1 -d 2 -p cbr -e 500 -c 0 -i 23 -a 0 -x {1.0 3.1 4 ------- null}
h -t 1.02 -s 1 -d 2 -p cbr -e 500 -c 0 -i 23 -a 0 -x {1.0 3.1 -1 ------- null}
r -t 1.022 -s 1 -d 2 -p cbr -e 500 -c 0 -i 19 -a 0 -x {1.0 3.1 2 ------- null}
+ -t 1.022 -s 2 -d 3 -p cbr -e 500 -c 0 -i 19 -a 0 -x {1.0 3.1 2 ------- null}
r -t 1.0244 -s 0 -d 2 -p tcp -e 1040 -c 0 -i 20 -a 0 -x {0.0 3.0 11 ------- null}
+ -t 1.0244 -s 2 -d 3 -p tcp -e 1040 -c 0 -i 20 -a 0 -x {0.0 3.0 11 ------- null}
+ -t 1.025 -s 1 -d 2 -p cbr -e 500 -c 0 -i 24 -a 0 -x {1.0 3.1 5 ------- null}
- -t 1.025 -s 1 -d 2 -p cbr -e 500 -c 0 -i 24 -a 0 -x {1.0 3.1 5 ------- null}
h -t 1.025 -s 1 -d 2 -p cbr -e 500 -c 0 -i 24 -a 0 -x {1.0 3.1 -1 ------- null}
r -t 1.027 -s 1 -d 2 -p cbr -e 500 -c 0 -i 22 -a 0 -x {1.0 3.1 3 ------- null}
+ -t 1.027 -s 2 -d 3 -p cbr -e 500 -c 0 -i 22 -a 0 -x {1.0 3.1 3 ------- null}
r -t 1.02856 -s 0 -d 2 -p tcp -e 1040 -c 0 -i 21 -a 0 -x {0.0 3.0 12 ------- null}
+ -t 1.02856 -s 2 -d 3 -p tcp -e 1040 -c 0 -i 21 -a 0 -x {0.0 3.0 12 ------- null}
+ -t 1.03 -s 1 -d 2 -p cbr -e 500 -c 0 -i 25 -a 0 -x {1.0 3.1 6 ------- null}
- -t 1.03 -s 1 -d 2 -p cbr -e 500 -c 0 -i 25 -a 0 -x {1.0 3.1 6 ------- null}
h -t 1.03 -s 1 -d 2 -p cbr -e 500 -c 0 -i 25 -a 0 -x {1.0 3.1 -1 ------- null}
r -t 1.032 -s 1 -d 2 -p cbr -e 500 -c 0 -i 23 -a 0 -x {1.0 3.1 4 ------- null}
+ -t 1.032 -s 2 -d 3 -p cbr -e 500 -c 0 -i 23 -a 0 -x {1.0 3.1 4 ------- null}
+ -t 1.035 -s 1 -d 2 -p cbr -e 500 -c 0 -i 26 -a 0 -x {1.0 3.1 7 ------- null}
- -t 1.035 -s 1 -d 2 -p cbr -e 500 -c 0 -i 26 -a 0 -x {1.0 3.1 7 ------- null}
h -t 1.035 -s 1 -d 2 -p cbr -e 500 -c 0 -i 26 -a 0 -x {1.0 3.1 -1 ------- null}
r -t 1.037 -s 1 -d 2 -p cbr -e 500 -c 0 -i 24 -a 0 -x {1.0 3.1 5 ------- null}
+ -t 1.037 -s 2 -d 3 -p cbr -e 500 -c 0 -i 24 -a 0 -x {1.0 3.1 5 ------- null}
+ -t 1.04 -s 1 -d 2 -p cbr -e 500 -c 0 -i 27 -a 0 -x {1.0 3.1 8 ------- null}
- -t 1.04 -s 1 -d 2 -p cbr -e 500 -c 0 -i 27 -a 0 -x {1.0 3.1 8 ------- null}
h -t 1.04 -s 1 -d 2 -p cbr -e 500 -c 0 -i 27 -a 0 -x {1.0 3.1 -1 ------- null}
r -t 1.042 -s 1 -d 2 -p cbr -e 500 -c 0 -i 25 -a 0 -x {1.0 3.1 6 ------- null}
+ -t 1.042 -s 2 -d 3 -p cbr -e 500 -c 0 -i 25 -a 0 -x {1.0 3.1 6 ------- null}
+ -t 1.045 -s 1 -d 2 -p cbr -e 500 -c 0 -i 28 -a 0 -x {1.0 3.1 9 ------- null}
- -t 1.045 -s 1 -d 2 -p cbr -e 500 -c 0 -i 28 -a 0 -x {1.0 3.1 9 ------- null}
h -t 1.045 -s 1 -d 2 -p cbr -e 500 -c 0 -i 28 -a 0 -x {1.0 3.1 -1 ------- null}
r -t 1.047 -s 1 -d 2 -p cbr -e 500 -c 0 -i 26 -a 0 -x {1.0 3.1 7 ------- null}
+ -t 1.047 -s 2 -d 3 -p cbr -e 500 -c 0 -i 26 -a 0 -x {1.0 3.1 7 ------- null}
+ -t 1.05 -s 1 -d 2 -p cbr -e 500 -c 0 -i 29 -a 0 -x {1.0 3.1 10 ------- null}
- -t 1.05 -s 1 -d 2 -p cbr -e 500 -c 0 -i 29 -a 0 -x {1.0 3.1 10 ------- null}
h -t 1.05 -s 1 -d 2 -p cbr -e 500 -c 0 -i 29 -a 0 -x {1.0 3.1 -1 ------- null}
r -t 1.052 -s 1 -d 2 -p cbr -e 500 -c 0 -i 27 -a 0 -x {1.0 3.1 8 ------- null}
+ -t 1.052 -s 2 -d 3 -p cbr -e 500 -c 0 -i 27 -a 0 -x {1.0 3.1 8 ------- null}
+ -t 1.055 -s 1 -d 2 -p cbr -e 500 -c 0 -i 30 -a 0 -x {1.0 3.1 11 ------- null}
- -t 1.055 -s 1 -d 2 -p cbr -e 500 -c 0 -i 30 -a 0 -x {1.0 3.1 11 ------- null}
h -t 1.055 -s 1 -d 2 -p cbr -e 500 -c 0 -i 30 -a 0 -x {1.0 3.1 -1 ------- null}
r -t 1.057 -s 1 -d 2 -p cbr -e 500 -c 0 -i 28 -a 0 -x {1.0 3.1 9 ------- null}
+ -t 1.057 -s 2 -d 3 -p cbr -e 500 -c 0 -i 28 -a 0 -x {1.0 3.1 9 ------- null}
+ -t 1.06 -s 1 -d 2 -p cbr -e 500 -c 0 -i 31 -a 0 -x {1.0 3.1 12 ------- null}
- -t 1.06 -s 1 -d 2 -p cbr -e 500 -c 0 -i 31 -a 0 -x {1.0 3.1 12 ------- null}
h -t 1.06 -s 1 -d 2 -p cbr -e 500 -c 0 -i 31 -a 0 -x {1.0 3.1 -1 ------- null}
- -t 1.06008 -s 2 -d 3 -p tcp -e 1040 -c 0 -i 11 -a 0 -x {0.0 3.0 7 ------- null}
h -t 1.06008 -s 2 -d 3 -p tcp -e 1040 -c 0 -i 11 -a 0 -x {0.0 3.0 -1 ------- null}
r -t 1.062 -s 1 -d 2 -p cbr -e 500 -c 0 -i 29 -a 0 -x {1.0 3.1 10 ------- null}
+ -t 1.062 -s 2 -d 3 -p cbr -e 500 -c 0 -i 29 -a 0 -x {1.0 3.1 10 ------- null}
+ -t 1.065 -s 1 -d 2 -p cbr -e 500 -c 0 -i 32 -a 0 -x {1.0 3.1 13 ------- null}
- -t 1.065 -s 1 -d 2 -p cbr -e 500 -c 0 -i 32 -a 0 -x {1.0 3.1 13 ------- null}
h -t 1.065 -s 1 -d 2 -p cbr -e 500 -c 0 -i 32 -a 0 -x {1.0 3.1 -1 ------- null}
r -t 1.067 -s 1 -d 2 -p cbr -e 500 -c 0 -i 30 -a 0 -x {1.0 3.1 11 ------- null}
+ -t 1.067 -s 2 -d 3 -p cbr -e 500 -c 0 -i 30 -a 0 -x {1.0 3.1 11 ------- null}
+ -t 1.07 -s 1 -d 2 -p cbr -e 500 -c 0 -i 33 -a 0 -x {1.0 3.1 14 ------- null}
- -t 1.07 -s 1 -d 2 -p cbr -e 500 -c 0 -i 33 -a 0 -x {1.0 3.1 14 ------- null}
h -t 1.07 -s 1 -d 2 -p cbr -e 500 -c 0 -i 33 -a 0 -x {1.0 3.1 -1 ------- null}
r -t 1.07008 -s 2 -d 3 -p tcp -e 1040 -c 0 -i 9 -a 0 -x {0.0 3.0 6 ------- null}
+ -t 1.07008 -s 3 -d 2 -p ack -e 40 -c 0 -i 34 -a 0 -x {3.0 0.0 6 ------- null}
- -t 1.07008 -s 3 -d 2 -p ack -e 40 -c 0 -i 34 -a 0 -x {3.0 0.0 6 ------- null}
h -t 1.07008 -s 3 -d 2 -p ack -e 40 -c 0 -i 34 -a 0 -x {3.0 0.0 -1 ------- null}
r -t 1.072 -s 1 -d 2 -p cbr -e 500 -c 0 -i 31 -a 0 -x {1.0 3.1 12 ------- null}
+ -t 1.072 -s 2 -d 3 -p cbr -e 500 -c 0 -i 31 -a 0 -x {1.0 3.1 12 ------- null}
+ -t 1.075 -s 1 -d 2 -p cbr -e 500 -c 0 -i 35 -a 0 -x {1.0 3.1 15 ------- null}
- -t 1.075 -s 1 -d 2 -p cbr -e 500 -c 0 -i 35 -a 0 -x {1.0 3.1 15 ------- null}
h -t 1.075 -s 1 -d 2 -p cbr -e 500 -c 0 -i 35 -a 0 -x {1.0 3.1 -1 ------- null}
r -t 1.077 -s 1 -d 2 -p cbr -e 500 -c 0 -i 32 -a 0 -x {1.0 3.1 13 ------- null}
+ -t 1.077 -s 2 -d 3 -p cbr -e 500 -c 0 -i 32 -a 0 -x {1.0 3.1 13 ------- null}
+ -t 1.08 -s 1 -d 2 -p cbr -e 500 -c 0 -i 36 -a 0 -x {1.0 3.1 16 ------- null}
- -t 1.08 -s 1 -d 2 -p cbr -e 500 -c 0 -i 36 -a 0 -x {1.0 3.1 16 ------- null}
h -t 1.08 -s 1 -d 2 -p cbr -e 500 -c 0 -i 36 -a 0 -x {1.0 3.1 -1 ------- null}
r -t 1.082 -s 1 -d 2 -p cbr -e 500 -c 0 -i 33 -a 0 -x {1.0 3.1 14 ------- null}
+ -t 1.082 -s 2 -d 3 -p cbr -e 500 -c 0 -i 33 -a 0 -x {1.0 3.1 14 ------- null}
r -t 1.08328 -s 3 -d 2 -p ack -e 40 -c 0 -i 34 -a 0 -x {3.0 0.0 6 ------- null}
+ -t 1.08328 -s 2 -d 0 -p ack -e 40 -c 0 -i 34 -a 0 -x {3.0 0.0 6 ------- null}
- -t 1.08328 -s 2 -d 0 -p ack -e 40 -c 0 -i 34 -a 0 -x {3.0 0.0 6 ------- null}
h -t 1.08328 -s 2 -d 0 -p ack -e 40 -c 0 -i 34 -a 0 -x {3.0 0.0 -1 ------- null}
+ -t 1.085 -s 1 -d 2 -p cbr -e 500 -c 0 -i 37 -a 0 -x {1.0 3.1 17 ------- null}
- -t 1.085 -s 1 -d 2 -p cbr -e 500 -c 0 -i 37 -a 0 -x {1.0 3.1 17 ------- null}
h -t 1.085 -s 1 -d 2 -p cbr -e 500 -c 0 -i 37 -a 0 -x {1.0 3.1 -1 ------- null}
r -t 1.087 -s 1 -d 2 -p cbr -e 500 -c 0 -i 35 -a 0 -x {1.0 3.1 15 ------- null}
+ -t 1.087 -s 2 -d 3 -p cbr -e 500 -c 0 -i 35 -a 0 -x {1.0 3.1 15 ------- null}
+ -t 1.09 -s 1 -d 2 -p cbr -e 500 -c 0 -i 38 -a 0 -x {1.0 3.1 18 ------- null}
- -t 1.09 -s 1 -d 2 -p cbr -e 500 -c 0 -i 38 -a 0 -x {1.0 3.1 18 ------- null}
h -t 1.09 -s 1 -d 2 -p cbr -e 500 -c 0 -i 38 -a 0 -x {1.0 3.1 -1 ------- null}
r -t 1.092 -s 1 -d 2 -p cbr -e 500 -c 0 -i 36 -a 0 -x {1.0 3.1 16 ------- null}
+ -t 1.092 -s 2 -d 3 -p cbr -e 500 -c 0 -i 36 -a 0 -x {1.0 3.1 16 ------- null}
r -t 1.09344 -s 2 -d 0 -p ack -e 40 -c 0 -i 34 -a 0 -x {3.0 0.0 6 ------- null}
+ -t 1.09344 -s 0 -d 2 -p tcp -e 1040 -c 0 -i 39 -a 0 -x {0.0 3.0 13 ------- null}
- -t 1.09344 -s 0 -d 2 -p tcp -e 1040 -c 0 -i 39 -a 0 -x {0.0 3.0 13 ------- null}
h -t 1.09344 -s 0 -d 2 -p tcp -e 1040 -c 0 -i 39 -a 0 -x {0.0 3.0 -1 ------- null}
+ -t 1.09344 -s 0 -d 2 -p tcp -e 1040 -c 0 -i 40 -a 0 -x {0.0 3.0 14 ------- null}
+ -t 1.095 -s 1 -d 2 -p cbr -e 500 -c 0 -i 41 -a 0 -x {1.0 3.1 19 ------- null}
- -t 1.095 -s 1 -d 2 -p cbr -e 500 -c 0 -i 41 -a 0 -x {1.0 3.1 19 ------- null}
h -t 1.095 -s 1 -d 2 -p cbr -e 500 -c 0 -i 41 -a 0 -x {1.0 3.1 -1 ------- null}
r -t 1.097 -s 1 -d 2 -p cbr -e 500 -c 0 -i 37 -a 0 -x {1.0 3.1 17 ------- null}
+ -t 1.097 -s 2 -d 3 -p cbr -e 500 -c 0 -i 37 -a 0 -x {1.0 3.1 17 ------- null}
- -t 1.0976 -s 0 -d 2 -p tcp -e 1040 -c 0 -i 40 -a 0 -x {0.0 3.0 14 ------- null}
h -t 1.0976 -s 0 -d 2 -p tcp -e 1040 -c 0 -i 40 -a 0 -x {0.0 3.0 -1 ------- null}
+ -t 1.1 -s 1 -d 2 -p cbr -e 500 -c 0 -i 42 -a 0 -x {1.0 3.1 20 ------- null}
- -t 1.1 -s 1 -d 2 -p cbr -e 500 -c 0 -i 42 -a 0 -x {1.0 3.1 20 ------- null}
h -t 1.1 -s 1 -d 2 -p cbr -e 500 -c 0 -i 42 -a 0 -x {1.0 3.1 -1 ------- null}
r -t 1.102 -s 1 -d 2 -p cbr -e 500 -c 0 -i 38 -a 0 -x {1.0 3.1 18 ------- null}
+ -t 1.102 -s 2 -d 3 -p cbr -e 500 -c 0 -i 38 -a 0 -x {1.0 3.1 18 ------- null}
+ -t 1.105 -s 1 -d 2 -p cbr -e 500 -c 0 -i 43 -a 0 -x {1.0 3.1 21 ------- null}
- -t 1.105 -s 1 -d 2 -p cbr -e 500 -c 0 -i 43 -a 0 -x {1.0 3.1 21 ------- null}
h -t 1.105 -s 1 -d 2 -p cbr -e 500 -c 0 -i 43 -a 0 -x {1.0 3.1 -1 ------- null}
r -t 1.107 -s 1 -d 2 -p cbr -e 500 -c 0 -i 41 -a 0 -x {1.0 3.1 19 ------- null}
+ -t 1.107 -s 2 -d 3 -p cbr -e 500 -c 0 -i 41 -a 0 -x {1.0 3.1 19 ------- null}
r -t 1.1076 -s 0 -d 2 -p tcp -e 1040 -c 0 -i 39 -a 0 -x {0.0 3.0 13 ------- null}
+ -t 1.1076 -s 2 -d 3 -p tcp -e 1040 -c 0 -i 39 -a 0 -x {0.0 3.0 13 ------- null}
+ -t 1.11 -s 1 -d 2 -p cbr -e 500 -c 0 -i 44 -a 0 -x {1.0 3.1 22 ------- null}
- -t 1.11 -s 1 -d 2 -p cbr -e 500 -c 0 -i 44 -a 0 -x {1.0 3.1 22 ------- null}
h -t 1.11 -s 1 -d 2 -p cbr -e 500 -c 0 -i 44 -a 0 -x {1.0 3.1 -1 ------- null}
r -t 1.11176 -s 0 -d 2 -p tcp -e 1040 -c 0 -i 40 -a 0 -x {0.0 3.0 14 ------- null}
+ -t 1.11176 -s 2 -d 3 -p tcp -e 1040 -c 0 -i 40 -a 0 -x {0.0 3.0 14 ------- null}
r -t 1.112 -s 1 -d 2 -p cbr -e 500 -c 0 -i 42 -a 0 -x {1.0 3.1 20 ------- null}
+ -t 1.112 -s 2 -d 3 -p cbr -e 500 -c 0 -i 42 -a 0 -x {1.0 3.1 20 ------- null}
+ -t 1.115 -s 1 -d 2 -p cbr -e 500 -c 0 -i 45 -a 0 -x {1.0 3.1 23 ------- null}
- -t 1.115 -s 1 -d 2 -p cbr -e 500 -c 0 -i 45 -a 0 -x {1.0 3.1 23 ------- null}
h -t 1.115 -s 1 -d 2 -p cbr -e 500 -c 0 -i 45 -a 0 -x {1.0 3.1 -1 ------- null}
r -t 1.117 -s 1 -d 2 -p cbr -e 500 -c 0 -i 43 -a 0 -x {1.0 3.1 21 ------- null}
+ -t 1.117 -s 2 -d 3 -p cbr -e 500 -c 0 -i 43 -a 0 -x {1.0 3.1 21 ------- null}
+ -t 1.12 -s 1 -d 2 -p cbr -e 500 -c 0 -i 46 -a 0 -x {1.0 3.1 24 ------- null}
- -t 1.12 -s 1 -d 2 -p cbr -e 500 -c 0 -i 46 -a 0 -x {1.0 3.1 24 ------- null}
h -t 1.12 -s 1 -d 2 -p cbr -e 500 -c 0 -i 46 -a 0 -x {1.0 3.1 -1 ------- null}
r -t 1.122 -s 1 -d 2 -p cbr -e 500 -c 0 -i 44 -a 0 -x {1.0 3.1 22 ------- null}
+ -t 1.122 -s 2 -d 3 -p cbr -e 500 -c 0 -i 44 -a 0 -x {1.0 3.1 22 ------- null}
+ -t 1.125 -s 1 -d 2 -p cbr -e 500 -c 0 -i 47 -a 0 -x {1.0 3.1 25 ------- null}
- -t 1.125 -s 1 -d 2 -p cbr -e 500 -c 0 -i 47 -a 0 -x {1.0 3.1 25 ------- null}
h -t 1.125 -s 1 -d 2 -p cbr -e 500 -c 0 -i 47 -a 0 -x {1.0 3.1 -1 ------- null}
r -t 1.127 -s 1 -d 2 -p cbr -e 500 -c 0 -i 45 -a 0 -x {1.0 3.1 23 ------- null}
+ -t 1.127 -s 2 -d 3 -p cbr -e 500 -c 0 -i 45 -a 0 -x {1.0 3.1 23 ------- null}
+ -t 1.13 -s 1 -d 2 -p cbr -e 500 -c 0 -i 48 -a 0 -x {1.0 3.1 26 ------- null}
- -t 1.13 -s 1 -d 2 -p cbr -e 500 -c 0 -i 48 -a 0 -x {1.0 3.1 26 ------- null}
h -t 1.13 -s 1 -d 2 -p cbr -e 500 -c 0 -i 48 -a 0 -x {1.0 3.1 -1 ------- null}
r -t 1.132 -s 1 -d 2 -p cbr -e 500 -c 0 -i 46 -a 0 -x {1.0 3.1 24 ------- null}
+ -t 1.132 -s 2 -d 3 -p cbr -e 500 -c 0 -i 46 -a 0 -x {1.0 3.1 24 ------- null}
+ -t 1.135 -s 1 -d 2 -p cbr -e 500 -c 0 -i 49 -a 0 -x {1.0 3.1 27 ------- null}
- -t 1.135 -s 1 -d 2 -p cbr -e 500 -c 0 -i 49 -a 0 -x {1.0 3.1 27 ------- null}
h -t 1.135 -s 1 -d 2 -p cbr -e 500 -c 0 -i 49 -a 0 -x {1.0 3.1 -1 ------- null}
r -t 1.137 -s 1 -d 2 -p cbr -e 500 -c 0 -i 47 -a 0 -x {1.0 3.1 25 ------- null}
+ -t 1.137 -s 2 -d 3 -p cbr -e 500 -c 0 -i 47 -a 0 -x {1.0 3.1 25 ------- null}
+ -t 1.14 -s 1 -d 2 -p cbr -e 500 -c 0 -i 50 -a 0 -x {1.0 3.1 28 ------- null}
- -t 1.14 -s 1 -d 2 -p cbr -e 500 -c 0 -i 50 -a 0 -x {1.0 3.1 28 ------- null}
h -t 1.14 -s 1 -d 2 -p cbr -e 500 -c 0 -i 50 -a 0 -x {1.0 3.1 -1 ------- null}
r -t 1.142 -s 1 -d 2 -p cbr -e 500 -c 0 -i 48 -a 0 -x {1.0 3.1 26 ------- null}
+ -t 1.142 -s 2 -d 3 -p cbr -e 500 -c 0 -i 48 -a 0 -x {1.0 3.1 26 ------- null}
- -t 1.14328 -s 2 -d 3 -p tcp -e 1040 -c 0 -i 12 -a 0 -x {0.0 3.0 8 ------- null}
h -t 1.14328 -s 2 -d 3 -p tcp -e 1040 -c 0 -i 12 -a 0 -x {0.0 3.0 -1 ------- null}
+ -t 1.145 -s 1 -d 2 -p cbr -e 500 -c 0 -i 51 -a 0 -x {1.0 3.1 29 ------- null}
- -t 1.145 -s 1 -d 2 -p cbr -e 500 -c 0 -i 51 -a 0 -x {1.0 3.1 29 ------- null}
h -t 1.145 -s 1 -d 2 -p cbr -e 500 -c 0 -i 51 -a 0 -x {1.0 3.1 -1 ------- null}
r -t 1.147 -s 1 -d 2 -p cbr -e 500 -c 0 -i 49 -a 0 -x {1.0 3.1 27 ------- null}
+ -t 1.147 -s 2 -d 3 -p cbr -e 500 -c 0 -i 49 -a 0 -x {1.0 3.1 27 ------- null}
+ -t 1.15 -s 1 -d 2 -p cbr -e 500 -c 0 -i 52 -a 0 -x {1.0 3.1 30 ------- null}
- -t 1.15 -s 1 -d 2 -p cbr -e 500 -c 0 -i 52 -a 0 -x {1.0 3.1 30 ------- null}
h -t 1.15 -s 1 -d 2 -p cbr -e 500 -c 0 -i 52 -a 0 -x {1.0 3.1 -1 ------- null}
r -t 1.152 -s 1 -d 2 -p cbr -e 500 -c 0 -i 50 -a 0 -x {1.0 3.1 28 ------- null}
+ -t 1.152 -s 2 -d 3 -p cbr -e 500 -c 0 -i 50 -a 0 -x {1.0 3.1 28 ------- null}
r -t 1.15328 -s 2 -d 3 -p tcp -e 1040 -c 0 -i 11 -a 0 -x {0.0 3.0 7 ------- null}
+ -t 1.15328 -s 3 -d 2 -p ack -e 40 -c 0 -i 53 -a 0 -x {3.0 0.0 7 ------- null}
- -t 1.15328 -s 3 -d 2 -p ack -e 40 -c 0 -i 53 -a 0 -x {3.0 0.0 7 ------- null}
h -t 1.15328 -s 3 -d 2 -p ack -e 40 -c 0 -i 53 -a 0 -x {3.0 0.0 -1 ------- null}
+ -t 1.155 -s 1 -d 2 -p cbr -e 500 -c 0 -i 54 -a 0 -x {1.0 3.1 31 ------- null}
- -t 1.155 -s 1 -d 2 -p cbr -e 500 -c 0 -i 54 -a 0 -x {1.0 3.1 31 ------- null}
h -t 1.155 -s 1 -d 2 -p cbr -e 500 -c 0 -i 54 -a 0 -x {1.0 3.1 -1 ------- null}
r -t 1.157 -s 1 -d 2 -p cbr -e 500 -c 0 -i 51 -a 0 -x {1.0 3.1 29 ------- null}
+ -t 1.157 -s 2 -d 3 -p cbr -e 500 -c 0 -i 51 -a 0 -x {1.0 3.1 29 ------- null}
+ -t 1.16 -s 1 -d 2 -p cbr -e 500 -c 0 -i 55 -a 0 -x {1.0 3.1 32 ------- null}
- -t 1.16 -s 1 -d 2 -p cbr -e 500 -c 0 -i 55 -a 0 -x {1.0 3.1 32 ------- null}
h -t 1.16 -s 1 -d 2 -p cbr -e 500 -c 0 -i 55 -a 0 -x {1.0 3.1 -1 ------- null}
r -t 1.162 -s 1 -d 2 -p cbr -e 500 -c 0 -i 52 -a 0 -x {1.0 3.1 30 ------- null}
+ -t 1.162 -s 2 -d 3 -p cbr -e 500 -c 0 -i 52 -a 0 -x {1.0 3.1 30 ------- null}
+ -t 1.165 -s 1 -d 2 -p cbr -e 500 -c 0 -i 56 -a 0 -x {1.0 3.1 33 ------- null}
- -t 1.165 -s 1 -d 2 -p cbr -e 500 -c 0 -i 56 -a 0 -x {1.0 3.1 33 ------- null}
h -t 1.165 -s 1 -d 2 -p cbr -e 500 -c 0 -i 56 -a 0 -x {1.0 3.1 -1 ------- null}
r -t 1.16648 -s 3 -d 2 -p ack -e 40 -c 0 -i 53 -a 0 -x {3.0 0.0 7 ------- null}
+ -t 1.16648 -s 2 -d 0 -p ack -e 40 -c 0 -i 53 -a 0 -x {3.0 0.0 7 ------- null}
- -t 1.16648 -s 2 -d 0 -p ack -e 40 -c 0 -i 53 -a 0 -x {3.0 0.0 7 ------- null}
h -t 1.16648 -s 2 -d 0 -p ack -e 40 -c 0 -i 53 -a 0 -x {3.0 0.0 -1 ------- null}
r -t 1.167 -s 1 -d 2 -p cbr -e 500 -c 0 -i 54 -a 0 -x {1.0 3.1 31 ------- null}
+ -t 1.167 -s 2 -d 3 -p cbr -e 500 -c 0 -i 54 -a 0 -x {1.0 3.1 31 ------- null}
+ -t 1.17 -s 1 -d 2 -p cbr -e 500 -c 0 -i 57 -a 0 -x {1.0 3.1 34 ------- null}
- -t 1.17 -s 1 -d 2 -p cbr -e 500 -c 0 -i 57 -a 0 -x {1.0 3.1 34 ------- null}
h -t 1.17 -s 1 -d 2 -p cbr -e 500 -c 0 -i 57 -a 0 -x {1.0 3.1 -1 ------- null}
r -t 1.172 -s 1 -d 2 -p cbr -e 500 -c 0 -i 55 -a 0 -x {1.0 3.1 32 ------- null}
+ -t 1.172 -s 2 -d 3 -p cbr -e 500 -c 0 -i 55 -a 0 -x {1.0 3.1 32 ------- null}
+ -t 1.175 -s 1 -d 2 -p cbr -e 500 -c 0 -i 58 -a 0 -x {1.0 3.1 35 ------- null}
- -t 1.175 -s 1 -d 2 -p cbr -e 500 -c 0 -i 58 -a 0 -x {1.0 3.1 35 ------- null}
h -t 1.175 -s 1 -d 2 -p cbr -e 500 -c 0 -i 58 -a 0 -x {1.0 3.1 -1 ------- null}
r -t 1.17664 -s 2 -d 0 -p ack -e 40 -c 0 -i 53 -a 0 -x {3.0 0.0 7 ------- null}
+ -t 1.17664 -s 0 -d 2 -p tcp -e 1040 -c 0 -i 59 -a 0 -x {0.0 3.0 15 ------- null}
- -t 1.17664 -s 0 -d 2 -p tcp -e 1040 -c 0 -i 59 -a 0 -x {0.0 3.0 15 ------- null}
h -t 1.17664 -s 0 -d 2 -p tcp -e 1040 -c 0 -i 59 -a 0 -x {0.0 3.0 -1 ------- null}
+ -t 1.17664 -s 0 -d 2 -p tcp -e 1040 -c 0 -i 60 -a 0 -x {0.0 3.0 16 ------- null}
r -t 1.177 -s 1 -d 2 -p cbr -e 500 -c 0 -i 56 -a 0 -x {1.0 3.1 33 ------- null}
+ -t 1.177 -s 2 -d 3 -p cbr -e 500 -c 0 -i 56 -a 0 -x {1.0 3.1 33 ------- null}
+ -t 1.18 -s 1 -d 2 -p cbr -e 500 -c 0 -i 61 -a 0 -x {1.0 3.1 36 ------- null}
- -t 1.18 -s 1 -d 2 -p cbr -e 500 -c 0 -i 61 -a 0 -x {1.0 3.1 36 ------- null}
h -t 1.18 -s 1 -d 2 -p cbr -e 500 -c 0 -i 61 -a 0 -x {1.0 3.1 -1 ------- null}
- -t 1.1808 -s 0 -d 2 -p tcp -e 1040 -c 0 -i 60 -a 0 -x {0.0 3.0 16 ------- null}
h -t 1.1808 -s 0 -d 2 -p tcp -e 1040 -c 0 -i 60 -a 0 -x {0.0 3.0 -1 ------- null}
r -t 1.182 -s 1 -d 2 -p cbr -e 500 -c 0 -i 57 -a 0 -x {1.0 3.1 34 ------- null}
+ -t 1.182 -s 2 -d 3 -p cbr -e 500 -c 0 -i 57 -a 0 -x {1.0 3.1 34 ------- null}
+ -t 1.185 -s 1 -d 2 -p cbr -e 500 -c 0 -i 62 -a 0 -x {1.0 3.1 37 ------- null}
- -t 1.185 -s 1 -d 2 -p cbr -e 500 -c 0 -i 62 -a 0 -x {1.0 3.1 37 ------- null}
h -t 1.185 -s 1 -d 2 -p cbr -e 500 -c 0 -i 62 -a 0 -x {1.0 3.1 -1 ------- null}
r -t 1.187 -s 1 -d 2 -p cbr -e 500 -c 0 -i 58 -a 0 -x {1.0 3.1 35 ------- null}
+ -t 1.187 -s 2 -d 3 -p cbr -e 500 -c 0 -i 58 -a 0 -x {1.0 3.1 35 ------- null}
+ -t 1.19 -s 1 -d 2 -p cbr -e 500 -c 0 -i 63 -a 0 -x {1.0 3.1 38 ------- null}
- -t 1.19 -s 1 -d 2 -p cbr -e 500 -c 0 -i 63 -a 0 -x {1.0 3.1 38 ------- null}
h -t 1.19 -s 1 -d 2 -p cbr -e 500 -c 0 -i 63 -a 0 -x {1.0 3.1 -1 ------- null}
r -t 1.1908 -s 0 -d 2 -p tcp -e 1040 -c 0 -i 59 -a 0 -x {0.0 3.0 15 ------- null}
+ -t 1.1908 -s 2 -d 3 -p tcp -e 1040 -c 0 -i 59 -a 0 -x {0.0 3.0 15 ------- null}
r -t 1.192 -s 1 -d 2 -p cbr -e 500 -c 0 -i 61 -a 0 -x {1.0 3.1 36 ------- null}
+ -t 1.192 -s 2 -d 3 -p cbr -e 500 -c 0 -i 61 -a 0 -x {1.0 3.1 36 ------- null}
r -t 1.19496 -s 0 -d 2 -p tcp -e 1040 -c 0 -i 60 -a 0 -x {0.0 3.0 16 ------- null}
+ -t 1.19496 -s 2 -d 3 -p tcp -e 1040 -c 0 -i 60 -a 0 -x {0.0 3.0 16 ------- null}
+ -t 1.195 -s 1 -d 2 -p cbr -e 500 -c 0 -i 64 -a 0 -x {1.0 3.1 39 ------- null}
- -t 1.195 -s 1 -d 2 -p cbr -e 500 -c 0 -i 64 -a 0 -x {1.0 3.1 39 ------- null}