+ 0.5 0 2 tcp 40 ------- 0 0.0 3.0 0 0
- 0.5 0 2 tcp 40 ------- 0 0.0 3.0 0 0
r 0.51016 0 2 tcp 40 ------- 0 0.0 3.0 0 0
+ 0.51016 2 3 tcp 40 ------- 0 0.0 3.0 0 0
- 0.51016 2 3 tcp 40 ------- 0 0.0 3.0 0 0
r 0.52336 2 3 tcp 40 ------- 0 0.0 3.0 0 0
+ 0.52336 3 2 ack 40 ------- 0 3.0 0.0 0 1
- 0.52336 3 2 ack 40 ------- 0 3.0 0.0 0 1
r 0.53656 3 2 ack 40 ------- 0 3.0 0.0 0 1
+ 0.53656 2 0 ack 40 ------- 0 3.0 0.0 0 1
- 0.53656 2 0 ack 40 ------- 0 3.0 0.0 0 1
r 0.54672 2 0 ack 40 ------- 0 3.0 0.0 0 1
+ 0.54672 0 2 tcp 1040 ------- 0 0.0 3.0 1 2
- 0.54672 0 2 tcp 1040 ------- 0 0.0 3.0 1 2
+ 0.54672 0 2 tcp 1040 ------- 0 0.0 3.0 2 3
- 0.55088 0 2 tcp 1040 ------- 0 0.0 3.0 2 3
r 0.56088 0 2 tcp 1040 ------- 0 0.0 3.0 1 2
+ 0.56088 2 3 tcp 1040 ------- 0 0.0 3.0 1 2
- 0.56088 2 3 tcp 1040 ------- 0 0.0 3.0 1 2
r 0.56504 0 2 tcp 1040 ------- 0 0.0 3.0 2 3
+ 0.56504 2 3 tcp 1040 ------- 0 0.0 3.0 2 3
- 0.64408 2 3 tcp 1040 ------- 0 0.0 3.0 2 3
r 0.65408 2 3 tcp 1040 ------- 0 0.0 3.0 1 2
+ 0.65408 3 2 ack 40 ------- 0 3.0 0.0 1 4
- 0.65408 3 2 ack 40 ------- 0 3.0 0.0 1 4
r 0.66728 3 2 ack 40 ------- 0 3.0 0.0 1 4
+ 0.66728 2 0 ack 40 ------- 0 3.0 0.0 1 4
- 0.66728 2 0 ack 40 ------- 0 3.0 0.0 1 4
r 0.67744 2 0 ack 40 ------- 0 3.0 0.0 1 4
+ 0.67744 0 2 tcp 1040 ------- 0 0.0 3.0 3 5
- 0.67744 0 2 tcp 1040 ------- 0 0.0 3.0 3 5
+ 0.67744 0 2 tcp 1040 ------- 0 0.0 3.0 4 6
- 0.6816 0 2 tcp 1040 ------- 0 0.0 3.0 4 6
r 0.6916 0 2 tcp 1040 ------- 0 0.0 3.0 3 5
+ 0.6916 2 3 tcp 1040 ------- 0 0.0 3.0 3 5
r 0.69576 0 2 tcp 1040 ------- 0 0.0 3.0 4 6
+ 0.69576 2 3 tcp 1040 ------- 0 0.0 3.0 4 6
- 0.72728 2 3 tcp 1040 ------- 0 0.0 3.0 3 5
r 0.73728 2 3 tcp 1040 ------- 0 0.0 3.0 2 3
+ 0.73728 3 2 ack 40 ------- 0 3.0 0.0 2 7
- 0.73728 3 2 ack 40 ------- 0 3.0 0.0 2 7
r 0.75048 3 2 ack 40 ------- 0 3.0 0.0 2 7
+ 0.75048 2 0 ack 40 ------- 0 3.0 0.0 2 7
- 0.75048 2 0 ack 40 ------- 0 3.0 0.0 2 7
r 0.76064 2 0 ack 40 ------- 0 3.0 0.0 2 7
+ 0.76064 0 2 tcp 1040 ------- 0 0.0 3.0 5 8
- 0.76064 0 2 tcp 1040 ------- 0 0.0 3.0 5 8
+ 0.76064 0 2 tcp 1040 ------- 0 0.0 3.0 6 9
- 0.7648 0 2 tcp 1040 ------- 0 0.0 3.0 6 9
r 0.7748 0 2 tcp 1040 ------- 0 0.0 3.0 5 8
+ 0.7748 2 3 tcp 1040 ------- 0 0.0 3.0 5 8
r 0.77896 0 2 tcp 1040 ------- 0 0.0 3.0 6 9
+ 0.77896 2 3 tcp 1040 ------- 0 0.0 3.0 6 9
- 0.81048 2 3 tcp 1040 ------- 0 0.0 3.0 4 6
r 0.82048 2 3 tcp 1040 ------- 0 0.0 3.0 3 5
+ 0.82048 3 2 ack 40 ------- 0 3.0 0.0 3 10
- 0.82048 3 2 ack 40 ------- 0 3.0 0.0 3 10
r 0.83368 3 2 ack 40 ------- 0 3.0 0.0 3 10
+ 0.83368 2 0 ack 40 ------- 0 3.0 0.0 3 10
- 0.83368 2 0 ack 40 ------- 0 3.0 0.0 3 10
r 0.84384 2 0 ack 40 ------- 0 3.0 0.0 3 10
+ 0.84384 0 2 tcp 1040 ------- 0 0.0 3.0 7 11
- 0.84384 0 2 tcp 1040 ------- 0 0.0 3.0 7 11
+ 0.84384 0 2 tcp 1040 ------- 0 0.0 3.0 8 12
- 0.848 0 2 tcp 1040 ------- 0 0.0 3.0 8 12
r 0.858 0 2 tcp 1040 ------- 0 0.0 3.0 7 11
+ 0.858 2 3 tcp 1040 ------- 0 0.0 3.0 7 11
r 0.86216 0 2 tcp 1040 ------- 0 0.0 3.0 8 12
+ 0.86216 2 3 tcp 1040 ------- 0 0.0 3.0 8 12
- 0.89368 2 3 tcp 1040 ------- 0 0.0 3.0 5 8
r 0.90368 2 3 tcp 1040 ------- 0 0.0 3.0 4 6
+ 0.90368 3 2 ack 40 ------- 0 3.0 0.0 4 13
- 0.90368 3 2 ack 40 ------- 0 3.0 0.0 4 13
r 0.91688 3 2 ack 40 ------- 0 3.0 0.0 4 13
+ 0.91688 2 0 ack 40 ------- 0 3.0 0.0 4 13
- 0.91688 2 0 ack 40 ------- 0 3.0 0.0 4 13
r 0.92704 2 0 ack 40 ------- 0 3.0 0.0 4 13
+ 0.92704 0 2 tcp 1040 ------- 0 0.0 3.0 9 14
- 0.92704 0 2 tcp 1040 ------- 0 0.0 3.0 9 14
+ 0.92704 0 2 tcp 1040 ------- 0 0.0 3.0 10 15
- 0.9312 0 2 tcp 1040 ------- 0 0.0 3.0 10 15
r 0.9412 0 2 tcp 1040 ------- 0 0.0 3.0 9 14
+ 0.9412 2 3 tcp 1040 ------- 0 0.0 3.0 9 14
r 0.94536 0 2 tcp 1040 ------- 0 0.0 3.0 10 15
+ 0.94536 2 3 tcp 1040 ------- 0 0.0 3.0 10 15
- 0.97688 2 3 tcp 1040 ------- 0 0.0 3.0 6 9
r 0.98688 2 3 tcp 1040 ------- 0 0.0 3.0 5 8
+ 0.98688 3 2 ack 40 ------- 0 3.0 0.0 5 16
- 0.98688 3 2 ack 40 ------- 0 3.0 0.0 5 16
+ 1 1 2 cbr 500 ------- 0 1.0 3.1 0 17
- 1 1 2 cbr 500 ------- 0 1.0 3.1 0 17
r 1.00008 3 2 ack 40 ------- 0 3.0 0.0 5 16
+ 1.00008 2 0 ack 40 ------- 0 3.0 0.0 5 16
- 1.00008 2 0 ack 40 ------- 0 3.0 0.0 5 16
+ 1.005 1 2 cbr 500 ------- 0 1.0 3.1 1 18
- 1.005 1 2 cbr 500 ------- 0 1.0 3.1 1 18
+ 1.01 1 2 cbr 500 ------- 0 1.0 3.1 2 19
- 1.01 1 2 cbr 500 ------- 0 1.0 3.1 2 19
r 1.01024 2 0 ack 40 ------- 0 3.0 0.0 5 16
+ 1.01024 0 2 tcp 1040 ------- 0 0.0 3.0 11 20
- 1.01024 0 2 tcp 1040 ------- 0 0.0 3.0 11 20
+ 1.01024 0 2 tcp 1040 ------- 0 0.0 3.0 12 21
r 1.012 1 2 cbr 500 ------- 0 1.0 3.1 0 17
+ 1.012 2 3 cbr 500 ------- 0 1.0 3.1 0 17
- 1.0144 0 2 tcp 1040 ------- 0 0.0 3.0 12 21
+ 1.015 1 2 cbr 500 ------- 0 1.0 3.1 3 22
- 1.015 1 2 cbr 500 ------- 0 1.0 3.1 3 22
r 1.017 1 2 cbr 500 ------- 0 1.0 3.1 1 18
+ 1.017 2 3 cbr 500 ------- 0 1.0 3.1 1 18
+ 1.02 1 2 cbr 500 ------- 0 1.0 3.1 4 23
- 1.02 1 2 cbr 500 ------- 0 1.0 3.1 4 23
r 1.022 1 2 cbr 500 ------- 0 1.0 3.1 2 19
+ 1.022 2 3 cbr 500 ------- 0 1.0 3.1 2 19
r 1.0244 0 2 tcp 1040 ------- 0 0.0 3.0 11 20
+ 1.0244 2 3 tcp 1040 ------- 0 0.0 3.0 11 20
+ 1.025 1 2 cbr 500 ------- 0 1.0 3.1 5 24
- 1.025 1 2 cbr 500 ------- 0 1.0 3.1 5 24
r 1.027 1 2 cbr 500 ------- 0 1.0 3.1 3 22
+ 1.027 2 3 cbr 500 ------- 0 1.0 3.1 3 22
r 1.02856 0 2 tcp 1040 ------- 0 0.0 3.0 12 21
+ 1.02856 2 3 tcp 1040 ------- 0 0.0 3.0 12 21
+ 1.03 1 2 cbr 500 ------- 0 1.0 3.1 6 25
- 1.03 1 2 cbr 500 ------- 0 1.0 3.1 6 25
r 1.032 1 2 cbr 500 ------- 0 1.0 3.1 4 23
+ 1.032 2 3 cbr 500 ------- 0 1.0 3.1 4 23
+ 1.035 1 2 cbr 500 ------- 0 1.0 3.1 7 26
- 1.035 1 2 cbr 500 ------- 0 1.0 3.1 7 26
r 1.037 1 2 cbr 500 ------- 0 1.0 3.1 5 24
+ 1.037 2 3 cbr 500 ------- 0 1.0 3.1 5 24
+ 1.04 1 2 cbr 500 ------- 0 1.0 3.1 8 27
- 1.04 1 2 cbr 500 ------- 0 1.0 3.1 8 27
r 1.042 1 2 cbr 500 ------- 0 1.0 3.1 6 25
+ 1.042 2 3 cbr 500 ------- 0 1.0 3.1 6 25
+ 1.045 1 2 cbr 500 ------- 0 1.0 3.1 9 28
- 1.045 1 2 cbr 500 ------- 0 1.0 3.1 9 28
r 1.047 1 2 cbr 500 ------- 0 1.0 3.1 7 26
+ 1.047 2 3 cbr 500 ------- 0 1.0 3.1 7 26
+ 1.05 1 2 cbr 500 ------- 0 1.0 3.1 10 29
- 1.05 1 2 cbr 500 ------- 0 1.0 3.1 10 29
r 1.052 1 2 cbr 500 ------- 0 1.0 3.1 8 27
+ 1.052 2 3 cbr 500 ------- 0 1.0 3.1 8 27
+ 1.055 1 2 cbr 500 ------- 0 1.0 3.1 11 30
- 1.055 1 2 cbr 500 ------- 0 1.0 3.1 11 30
r 1.057 1 2 cbr 500 ------- 0 1.0 3.1 9 28
+ 1.057 2 3 cbr 500 ------- 0 1.0 3.1 9 28
+ 1.06 1 2 cbr 500 ------- 0 1.0 3.1 12 31
- 1.06 1 2 cbr 500 ------- 0 1.0 3.1 12 31
- 1.06008 2 3 tcp 1040 ------- 0 0.0 3.0 7 11
r 1.062 1 2 cbr 500 ------- 0 1.0 3.1 10 29
+ 1.062 2 3 cbr 500 ------- 0 1.0 3.1 10 29
+ 1.065 1 2 cbr 500 ------- 0 1.0 3.1 13 32
- 1.065 1 2 cbr 500 ------- 0 1.0 3.1 13 32
r 1.067 1 2 cbr 500 ------- 0 1.0 3.1 11 30
+ 1.067 2 3 cbr 500 ------- 0 1.0 3.1 11 30
+ 1.07 1 2 cbr 500 ------- 0 1.0 3.1 14 33
- 1.07 1 2 cbr 500 ------- 0 1.0 3.1 14 33
r 1.07008 2 3 tcp 1040 ------- 0 0.0 3.0 6 9
+ 1.07008 3 2 ack 40 ------- 0 3.0 0.0 6 34
- 1.07008 3 2 ack 40 ------- 0 3.0 0.0 6 34
r 1.072 1 2 cbr 500 ------- 0 1.0 3.1 12 31
+ 1.072 2 3 cbr 500 ------- 0 1.0 3.1 12 31
+ 1.075 1 2 cbr 500 ------- 0 1.0 3.1 15 35
- 1.075 1 2 cbr 500 ------- 0 1.0 3.1 15 35
r 1.077 1 2 cbr 500 ------- 0 1.0 3.1 13 32
+ 1.077 2 3 cbr 500 ------- 0 1.0 3.1 13 32
+ 1.08 1 2 cbr 500 ------- 0 1.0 3.1 16 36
- 1.08 1 2 cbr 500 ------- 0 1.0 3.1 16 36
r 1.082 1 2 cbr 500 ------- 0 1.0 3.1 14 33
+ 1.082 2 3 cbr 500 ------- 0 1.0 3.1 14 33
r 1.08328 3 2 ack 40 ------- 0 3.0 0.0 6 34
+ 1.08328 2 0 ack 40 ------- 0 3.0 0.0 6 34
- 1.08328 2 0 ack 40 ------- 0 3.0 0.0 6 34
+ 1.085 1 2 cbr 500 ------- 0 1.0 3.1 17 37
- 1.085 1 2 cbr 500 ------- 0 1.0 3.1 17 37
r 1.087 1 2 cbr 500 ------- 0 1.0 3.1 15 35
+ 1.087 2 3 cbr 500 ------- 0 1.0 3.1 15 35
+ 1.09 1 2 cbr 500 ------- 0 1.0 3.1 18 38
- 1.09 1 2 cbr 500 ------- 0 1.0 3.1 18 38
r 1.092 1 2 cbr 500 ------- 0 1.0 3.1 16 36
+ 1.092 2 3 cbr 500 ------- 0 1.0 3.1 16 36
r 1.09344 2 0 ack 40 ------- 0 3.0 0.0 6 34
+ 1.09344 0 2 tcp 1040 ------- 0 0.0 3.0 13 39
- 1.09344 0 2 tcp 1040 ------- 0 0.0 3.0 13 39
+ 1.09344 0 2 tcp 1040 ------- 0 0.0 3.0 14 40
+ 1.095 1 2 cbr 500 ------- 0 1.0 3.1 19 41
- 1.095 1 2 cbr 500 ------- 0 1.0 3.1 19 41
r 1.097 1 2 cbr 500 ------- 0 1.0 3.1 17 37
+ 1.097 2 3 cbr 500 ------- 0 1.0 3.1 17 37
- 1.0976 0 2 tcp 1040 ------- 0 0.0 3.0 14 40
+ 1.1 1 2 cbr 500 ------- 0 1.0 3.1 20 42
- 1.1 1 2 cbr 500 ------- 0 1.0 3.1 20 42
r 1.102 1 2 cbr 500 ------- 0 1.0 3.1 18 38
+ 1.102 2 3 cbr 500 ------- 0 1.0 3.1 18 38
+ 1.105 1 2 cbr 500 ------- 0 1.0 3.1 21 43
- 1.105 1 2 cbr 500 ------- 0 1.0 3.1 21 43
r 1.107 1 2 cbr 500 ------- 0 1.0 3.1 19 41
+ 1.107 2 3 cbr 500 ------- 0 1.0 3.1 19 41
r 1.1076 0 2 tcp 1040 ------- 0 0.0 3.0 13 39
+ 1.1076 2 3 tcp 1040 ------- 0 0.0 3.0 13 39
+ 1.11 1 2 cbr 500 ------- 0 1.0 3.1 22 44
- 1.11 1 2 cbr 500 ------- 0 1.0 3.1 22 44
r 1.11176 0 2 tcp 1040 ------- 0 0.0 3.0 14 40
+ 1.11176 2 3 tcp 1040 ------- 0 0.0 3.0 14 40
r 1.112 1 2 cbr 500 ------- 0 1.0 3.1 20 42
+ 1.112 2 3 cbr 500 ------- 0 1.0 3.1 20 42
+ 1.115 1 2 cbr 500 ------- 0 1.0 3.1 23 45
- 1.115 1 2 cbr 500 ------- 0 1.0 3.1 23 45
r 1.117 1 2 cbr 500 ------- 0 1.0 3.1 21 43
+ 1.117 2 3 cbr 500 ------- 0 1.0 3.1 21 43
+ 1.12 1 2 cbr 500 ------- 0 1.0 3.1 24 46
- 1.12 1 2 cbr 500 ------- 0 1.0 3.1 24 46
r 1.122 1 2 cbr 500 ------- 0 1.0 3.1 22 44
+ 1.122 2 3 cbr 500 ------- 0 1.0 3.1 22 44
+ 1.125 1 2 cbr 500 ------- 0 1.0 3.1 25 47
- 1.125 1 2 cbr 500 ------- 0 1.0 3.1 25 47
r 1.127 1 2 cbr 500 ------- 0 1.0 3.1 23 45
+ 1.127 2 3 cbr 500 ------- 0 1.0 3.1 23 45
+ 1.13 1 2 cbr 500 ------- 0 1.0 3.1 26 48
- 1.13 1 2 cbr 500 ------- 0 1.0 3.1 26 48
r 1.132 1 2 cbr 500 ------- 0 1.0 3.1 24 46
+ 1.132 2 3 cbr 500 ------- 0 1.0 3.1 24 46
+ 1.135 1 2 cbr 500 ------- 0 1.0 3.1 27 49
- 1.135 1 2 cbr 500 ------- 0 1.0 3.1 27 49
r 1.137 1 2 cbr 500 ------- 0 1.0 3.1 25 47
+ 1.137 2 3 cbr 500 ------- 0 1.0 3.1 25 47
+ 1.14 1 2 cbr 500 ------- 0 1.0 3.1 28 50
- 1.14 1 2 cbr 500 ------- 0 1.0 3.1 28 50
r 1.142 1 2 cbr 500 ------- 0 1.0 3.1 26 48
+ 1.142 2 3 cbr 500 ------- 0 1.0 3.1 26 48
- 1.14328 2 3 tcp 1040 ------- 0 0.0 3.0 8 12
+ 1.145 1 2 cbr 500 ------- 0 1.0 3.1 29 51
- 1.145 1 2 cbr 500 ------- 0 1.0 3.1 29 51
r 1.147 1 2 cbr 500 ------- 0 1.0 3.1 27 49
+ 1.147 2 3 cbr 500 ------- 0 1.0 3.1 27 49
+ 1.15 1 2 cbr 500 ------- 0 1.0 3.1 30 52
- 1.15 1 2 cbr 500 ------- 0 1.0 3.1 30 52
r 1.152 1 2 cbr 500 ------- 0 1.0 3.1 28 50
+ 1.152 2 3 cbr 500 ------- 0 1.0 3.1 28 50
r 1.15328 2 3 tcp 1040 ------- 0 0.0 3.0 7 11
+ 1.15328 3 2 ack 40 ------- 0 3.0 0.0 7 53
- 1.15328 3 2 ack 40 ------- 0 3.0 0.0 7 53
+ 1.155 1 2 cbr 500 ------- 0 1.0 3.1 31 54
- 1.155 1 2 cbr 500 ------- 0 1.0 3.1 31 54
r 1.157 1 2 cbr 500 ------- 0 1.0 3.1 29 51
+ 1.157 2 3 cbr 500 ------- 0 1.0 3.1 29 51
+ 1.16 1 2 cbr 500 ------- 0 1.0 3.1 32 55
- 1.16 1 2 cbr 500 ------- 0 1.0 3.1 32 55
r 1.162 1 2 cbr 500 ------- 0 1.0 3.1 30 52
+ 1.162 2 3 cbr 500 ------- 0 1.0 3.1 30 52
+ 1.165 1 2 cbr 500 ------- 0 1.0 3.1 33 56
- 1.165 1 2 cbr 500 ------- 0 1.0 3.1 33 56
r 1.16648 3 2 ack 40 ------- 0 3.0 0.0 7 53
+ 1.16648 2 0 ack 40 ------- 0 3.0 0.0 7 53
- 1.16648 2 0 ack 40 ------- 0 3.0 0.0 7 53
r 1.167 1 2 cbr 500 ------- 0 1.0 3.1 31 54
+ 1.167 2 3 cbr 500 ------- 0 1.0 3.1 31 54
+ 1.17 1 2 cbr 500 ------- 0 1.0 3.1 34 57
- 1.17 1 2 cbr 500 ------- 0 1.0 3.1 34 57
r 1.172 1 2 cbr 500 ------- 0 1.0 3.1 32 55
+ 1.172 2 3 cbr 500 ------- 0 1.0 3.1 32 55
+ 1.175 1 2 cbr 500 ------- 0 1.0 3.1 35 58
- 1.175 1 2 cbr 500 ------- 0 1.0 3.1 35 58
r 1.17664 2 0 ack 40 ------- 0 3.0 0.0 7 53
+ 1.17664 0 2 tcp 1040 ------- 0 0.0 3.0 15 59
- 1.17664 0 2 tcp 1040 ------- 0 0.0 3.0 15 59
+ 1.17664 0 2 tcp 1040 ------- 0 0.0 3.0 16 60
r 1.177 1 2 cbr 500 ------- 0 1.0 3.1 33 56
+ 1.177 2 3 cbr 500 ------- 0 1.0 3.1 33 56
+ 1.18 1 2 cbr 500 ------- 0 1.0 3.1 36 61
- 1.18 1 2 cbr 500 ------- 0 1.0 3.1 36 61
- 1.1808 0 2 tcp 1040 ------- 0 0.0 3.0 16 60
r 1.182 1 2 cbr 500 ------- 0 1.0 3.1 34 57
+ 1.182 2 3 cbr 500 ------- 0 1.0 3.1 34 57
+ 1.185 1 2 cbr 500 ------- 0 1.0 3.1 37 62
- 1.185 1 2 cbr 500 ------- 0 1.0 3.1 37 62
r 1.187 1 2 cbr 500 ------- 0 1.0 3.1 35 58
+ 1.187 2 3 cbr 500 ------- 0 1.0 3.1 35 58
+ 1.19 1 2 cbr 500 ------- 0 1.0 3.1 38 63
- 1.19 1 2 cbr 500 ------- 0 1.0 3.1 38 63
r 1.1908 0 2 tcp 1040 ------- 0 0.0 3.0 15 59
+ 1.1908 2 3 tcp 1040 ------- 0 0.0 3.0 15 59
r 1.192 1 2 cbr 500 ------- 0 1.0 3.1 36 61
+ 1.192 2 3 cbr 500 ------- 0 1.0 3.1 36 61
r 1.19496 0 2 tcp 1040 ------- 0 0.0 3.0 16 60
+ 1.19496 2 3 tcp 1040 ------- 0 0.0 3.0 16 60
+ 1.195 1 2 cbr 500 ------- 0 1.0 3.1 39 64
- 1.195 1 2 cbr 500 ------- 0 1.0 3.1 39 64
r 1.197 1 2 cbr 500 ------- 0 1.0 3.1 37 62
+ 1.197 2 3 cbr 500 ------- 0 1.0 3.1 37 62
+ 1.2 1 2 cbr 500 ------- 0 1.0 3.1 40 65
- 1.2 1 2 cbr 500 ------- 0 1.0 3.1 40 65
r 1.202 1 2 cbr 500 ------- 0 1.0 3.1 38 63
+ 1.202 2 3 cbr 500 ------- 0 1.0 3.1 38 63
+ 1.205 1 2 cbr 500 ------- 0 1.0 3.1 41 66
- 1.205 1 2 cbr 500 ------- 0 1.0 3.1 41 66
r 1.207 1 2 cbr 500 ------- 0 1.0 3.1 39 64
+ 1.207 2 3 cbr 500 ------- 0 1.0 3.1 39 64
+ 1.21 1 2 cbr 500 ------- 0 1.0 3.1 42 67
- 1.21 1 2 cbr 500 ------- 0 1.0 3.1 42 67
r 1.212 1 2 cbr 500 ------- 0 1.0 3.1 40 65
+ 1.212 2 3 cbr 500 ------- 0 1.0 3.1 40 65
+ 1.215 1 2 cbr 500 ------- 0 1.0 3.1 43 68
- 1.215 1 2 cbr 500 ------- 0 1.0 3.1 43 68
r 1.217 1 2 cbr 500 ------- 0 1.0 3.1 41 66
+ 1.217 2 3 cbr 500 ------- 0 1.0 3.1 41 66
d 1.217 2 3 cbr 500 ------- 0 1.0 3.1 41 66
+ 1.22 1 2 cbr 500 ------- 0 1.0 3.1 44 69
- 1.22 1 2 cbr 500 ------- 0 1.0 3.1 44 69
r 1.222 1 2 cbr 500 ------- 0 1.0 3.1 42 67
+ 1.222 2 3 cbr 500 ------- 0 1.0 3.1 42 67
d 1.222 2 3 cbr 500 ------- 0 1.0 3.1 42 67
+ 1.225 1 2 cbr 500 ------- 0 1.0 3.1 45 70
- 1.225 1 2 cbr 500 ------- 0 1.0 3.1 45 70
- 1.22648 2 3 tcp 1040 ------- 0 0.0 3.0 9 14
r 1.227 1 2 cbr 500 ------- 0 1.0 3.1 43 68
+ 1.227 2 3 cbr 500 ------- 0 1.0 3.1 43 68
+ 1.23 1 2 cbr 500 ------- 0 1.0 3.1 46 71
- 1.23 1 2 cbr 500 ------- 0 1.0 3.1 46 71
r 1.232 1 2 cbr 500 ------- 0 1.0 3.1 44 69
+ 1.232 2 3 cbr 500 ------- 0 1.0 3.1 44 69
d 1.232 2 3 cbr 500 ------- 0 1.0 3.1 44 69
+ 1.235 1 2 cbr 500 ------- 0 1.0 3.1 47 72
- 1.235 1 2 cbr 500 ------- 0 1.0 3.1 47 72
r 1.23648 2 3 tcp 1040 ------- 0 0.0 3.0 8 12
+ 1.23648 3 2 ack 40 ------- 0 3.0 0.0 8 73
- 1.23648 3 2 ack 40 ------- 0 3.0 0.0 8 73
r 1.237 1 2 cbr 500 ------- 0 1.0 3.1 45 70
+ 1.237 2 3 cbr 500 ------- 0 1.0 3.1 45 70
d 1.237 2 3 cbr 500 ------- 0 1.0 3.1 45 70
+ 1.24 1 2 cbr 500 ------- 0 1.0 3.1 48 74
- 1.24 1 2 cbr 500 ------- 0 1.0 3.1 48 74
r 1.242 1 2 cbr 500 ------- 0 1.0 3.1 46 71
+ 1.242 2 3 cbr 500 ------- 0 1.0 3.1 46 71
d 1.242 2 3 cbr 500 ------- 0 1.0 3.1 46 71
+ 1.245 1 2 cbr 500 ------- 0 1.0 3.1 49 75
- 1.245 1 2 cbr 500 ------- 0 1.0 3.1 49 75
r 1.247 1 2 cbr 500 ------- 0 1.0 3.1 47 72
+ 1.247 2 3 cbr 500 ------- 0 1.0 3.1 47 72
d 1.247 2 3 cbr 500 ------- 0 1.0 3.1 47 72
r 1.24968 3 2 ack 40 ------- 0 3.0 0.0 8 73
+ 1.24968 2 0 ack 40 ------- 0 3.0 0.0 8 73
- 1.24968 2 0 ack 40 ------- 0 3.0 0.0 8 73
+ 1.25 1 2 cbr 500 ------- 0 1.0 3.1 50 76
- 1.25 1 2 cbr 500 ------- 0 1.0 3.1 50 76
r 1.252 1 2 cbr 500 ------- 0 1.0 3.1 48 74
+ 1.252 2 3 cbr 500 ------- 0 1.0 3.1 48 74
d 1.252 2 3 cbr 500 ------- 0 1.0 3.1 48 74
+ 1.255 1 2 cbr 500 ------- 0 1.0 3.1 51 77
- 1.255 1 2 cbr 500 ------- 0 1.0 3.1 51 77
r 1.257 1 2 cbr 500 ------- 0 1.0 3.1 49 75
+ 1.257 2 3 cbr 500 ------- 0 1.0 3.1 49 75
d 1.257 2 3 cbr 500 ------- 0 1.0 3.1 49 75
r 1.25984 2 0 ack 40 ------- 0 3.0 0.0 8 73
+ 1.25984 0 2 tcp 1040 ------- 0 0.0 3.0 17 78
- 1.25984 0 2 tcp 1040 ------- 0 0.0 3.0 17 78
+ 1.25984 0 2 tcp 1040 ------- 0 0.0 3.0 18 79
+ 1.26 1 2 cbr 500 ------- 0 1.0 3.1 52 80
- 1.26 1 2 cbr 500 ------- 0 1.0 3.1 52 80
r 1.262 1 2 cbr 500 ------- 0 1.0 3.1 50 76
+ 1.262 2 3 cbr 500 ------- 0 1.0 3.1 50 76
d 1.262 2 3 cbr 500 ------- 0 1.0 3.1 50 76
- 1.264 0 2 tcp 1040 ------- 0 0.0 3.0 18 79
+ 1.265 1 2 cbr 500 ------- 0 1.0 3.1 53 81
- 1.265 1 2 cbr 500 ------- 0 1.0 3.1 53 81
r 1.267 1 2 cbr 500 ------- 0 1.0 3.1 51 77
+ 1.267 2 3 cbr 500 ------- 0 1.0 3.1 51 77
d 1.267 2 3 cbr 500 ------- 0 1.0 3.1 51 77
+ 1.27 1 2 cbr 500 ------- 0 1.0 3.1 54 82
- 1.27 1 2 cbr 500 ------- 0 1.0 3.1 54 82
r 1.272 1 2 cbr 500 ------- 0 1.0 3.1 52 80
+ 1.272 2 3 cbr 500 ------- 0 1.0 3.1 52 80
d 1.272 2 3 cbr 500 ------- 0 1.0 3.1 52 80
r 1.274 0 2 tcp 1040 ------- 0 0.0 3.0 17 78
+ 1.274 2 3 tcp 1040 ------- 0 0.0 3.0 17 78
d 1.274 2 3 tcp 1040 ------- 0 0.0 3.0 17 78
+ 1.275 1 2 cbr 500 ------- 0 1.0 3.1 55 83
- 1.275 1 2 cbr 500 ------- 0 1.0 3.1 55 83
r 1.277 1 2 cbr 500 ------- 0 1.0 3.1 53 81
+ 1.277 2 3 cbr 500 ------- 0 1.0 3.1 53 81
d 1.277 2 3 cbr 500 ------- 0 1.0 3.1 53 81
r 1.27816 0 2 tcp 1040 ------- 0 0.0 3.0 18 79
+ 1.27816 2 3 tcp 1040 ------- 0 0.0 3.0 18 79
d 1.27816 2 3 tcp 1040 ------- 0 0.0 3.0 18 79
+ 1.28 1 2 cbr 500 ------- 0 1.0 3.1 56 84
- 1.28 1 2 cbr 500 ------- 0 1.0 3.1 56 84
r 1.282 1 2 cbr 500 ------- 0 1.0 3.1 54 82
+ 1.282 2 3 cbr 500 ------- 0 1.0 3.1 54 82
d 1.282 2 3 cbr 500 ------- 0 1.0 3.1 54 82
+ 1.285 1 2 cbr 500 ------- 0 1.0 3.1 57 85
- 1.285 1 2 cbr 500 ------- 0 1.0 3.1 57 85
r 1.287 1 2 cbr 500 ------- 0 1.0 3.1 55 83
+ 1.287 2 3 cbr 500 ------- 0 1.0 3.1 55 83
d 1.287 2 3 cbr 500 ------- 0 1.0 3.1 55 83
+ 1.29 1 2 cbr 500 ------- 0 1.0 3.1 58 86
- 1.29 1 2 cbr 500 ------- 0 1.0 3.1 58 86
r 1.292 1 2 cbr 500 ------- 0 1.0 3.1 56 84
+ 1.292 2 3 cbr 500 ------- 0 1.0 3.1 56 84
d 1.292 2 3 cbr 500 ------- 0 1.0 3.1 56 84
+ 1.295 1 2 cbr 500 ------- 0 1.0 3.1 59 87
- 1.295 1 2 cbr 500 ------- 0 1.0 3.1 59 87
r 1.297 1 2 cbr 500 ------- 0 1.0 3.1 57 85
+ 1.297 2 3 cbr 500 ------- 0 1.0 3.1 57 85
d 1.297 2 3 cbr 500 ------- 0 1.0 3.1 57 85
+ 1.3 1 2 cbr 500 ------- 0 1.0 3.1 60 88
- 1.3 1 2 cbr 500 ------- 0 1.0 3.1 60 88
r 1.302 1 2 cbr 500 ------- 0 1.0 3.1 58 86
+ 1.302 2 3 cbr 500 ------- 0 1.0 3.1 58 86
d 1.302 2 3 cbr 500 ------- 0 1.0 3.1 58 86
+ 1.305 1 2 cbr 500 ------- 0 1.0 3.1 61 89
- 1.305 1 2 cbr 500 ------- 0 1.0 3.1 61 89
r 1.307 1 2 cbr 500 ------- 0 1.0 3.1 59 87
+ 1.307 2 3 cbr 500 ------- 0 1.0 3.1 59 87
d 1.307 2 3 cbr 500 ------- 0 1.0 3.1 59 87
- 1.30968 2 3 tcp 1040 ------- 0 0.0 3.0 10 15
+ 1.31 1 2 cbr 500 ------- 0 1.0 3.1 62 90
- 1.31 1 2 cbr 500 ------- 0 1.0 3.1 62 90
r 1.312 1 2 cbr 500 ------- 0 1.0 3.1 60 88
+ 1.312 2 3 cbr 500 ------- 0 1.0 3.1 60 88
+ 1.315 1 2 cbr 500 ------- 0 1.0 3.1 63 91
- 1.315 1 2 cbr 500 ------- 0 1.0 3.1 63 91
r 1.317 1 2 cbr 500 ------- 0 1.0 3.1 61 89
+ 1.317 2 3 cbr 500 ------- 0 1.0 3.1 61 89
d 1.317 2 3 cbr 500 ------- 0 1.0 3.1 61 89
r 1.31968 2 3 tcp 1040 ------- 0 0.0 3.0 9 14
+ 1.31968 3 2 ack 40 ------- 0 3.0 0.0 9 92
- 1.31968 3 2 ack 40 ------- 0 3.0 0.0 9 92
+ 1.32 1 2 cbr 500 ------- 0 1.0 3.1 64 93
- 1.32 1 2 cbr 500 ------- 0 1.0 3.1 64 93
r 1.322 1 2 cbr 500 ------- 0 1.0 3.1 62 90
+ 1.322 2 3 cbr 500 ------- 0 1.0 3.1 62 90
d 1.322 2 3 cbr 500 ------- 0 1.0 3.1 62 90
+ 1.325 1 2 cbr 500 ------- 0 1.0 3.1 65 94
- 1.325 1 2 cbr 500 ------- 0 1.0 3.1 65 94
r 1.327 1 2 cbr 500 ------- 0 1.0 3.1 63 91
+ 1.327 2 3 cbr 500 ------- 0 1.0 3.1 63 91
d 1.327 2 3 cbr 500 ------- 0 1.0 3.1 63 91
+ 1.33 1 2 cbr 500 ------- 0 1.0 3.1 66 95
- 1.33 1 2 cbr 500 ------- 0 1.0 3.1 66 95
r 1.332 1 2 cbr 500 ------- 0 1.0 3.1 64 93
+ 1.332 2 3 cbr 500 ------- 0 1.0 3.1 64 93
d 1.332 2 3 cbr 500 ------- 0 1.0 3.1 64 93
r 1.33288 3 2 ack 40 ------- 0 3.0 0.0 9 92
+ 1.33288 2 0 ack 40 ------- 0 3.0 0.0 9 92
- 1.33288 2 0 ack 40 ------- 0 3.0 0.0 9 92
+ 1.335 1 2 cbr 500 ------- 0 1.0 3.1 67 96
- 1.335 1 2 cbr 500 ------- 0 1.0 3.1 67 96
r 1.337 1 2 cbr 500 ------- 0 1.0 3.1 65 94
+ 1.337 2 3 cbr 500 ------- 0 1.0 3.1 65 94
d 1.337 2 3 cbr 500 ------- 0 1.0 3.1 65 94
+ 1.34 1 2 cbr 500 ------- 0 1.0 3.1 68 97
- 1.34 1 2 cbr 500 ------- 0 1.0 3.1 68 97
r 1.342 1 2 cbr 500 ------- 0 1.0 3.1 66 95
+ 1.342 2 3 cbr 500 ------- 0 1.0 3.1 66 95
d 1.342 2 3 cbr 500 ------- 0 1.0 3.1 66 95
r 1.34304 2 0 ack 40 ------- 0 3.0 0.0 9 92
+ 1.34304 0 2 tcp 1040 ------- 0 0.0 3.0 19 98
- 1.34304 0 2 tcp 1040 ------- 0 0.0 3.0 19 98
+ 1.34304 0 2 tcp 1040 ------- 0 0.0 3.0 20 99
+ 1.345 1 2 cbr 500 ------- 0 1.0 3.1 69 100
- 1.345 1 2 cbr 500 ------- 0 1.0 3.1 69 100
r 1.347 1 2 cbr 500 ------- 0 1.0 3.1 67 96
+ 1.347 2 3 cbr 500 ------- 0 1.0 3.1 67 96
d 1.347 2 3 cbr 500 ------- 0 1.0 3.1 67 96
- 1.3472 0 2 tcp 1040 ------- 0 0.0 3.0 20 99
+ 1.35 1 2 cbr 500 ------- 0 1.0 3.1 70 101
- 1.35 1 2 cbr 500 ------- 0 1.0 3.1 70 101
r 1.352 1 2 cbr 500 ------- 0 1.0 3.1 68 97
+ 1.352 2 3 cbr 500 ------- 0 1.0 3.1 68 97
d 1.352 2 3 cbr 500 ------- 0 1.0 3.1 68 97
+ 1.355 1 2 cbr 500 ------- 0 1.0 3.1 71 102
- 1.355 1 2 cbr 500 ------- 0 1.0 3.1 71 102
r 1.357 1 2 cbr 500 ------- 0 1.0 3.1 69 100
+ 1.357 2 3 cbr 500 ------- 0 1.0 3.1 69 100
d 1.357 2 3 cbr 500 ------- 0 1.0 3.1 69 100
r 1.3572 0 2 tcp 1040 ------- 0 0.0 3.0 19 98
+ 1.3572 2 3 tcp 1040 ------- 0 0.0 3.0 19 98
d 1.3572 2 3 tcp 1040 ------- 0 0.0 3.0 19 98
+ 1.36 1 2 cbr 500 ------- 0 1.0 3.1 72 103
- 1.36 1 2 cbr 500 ------- 0 1.0 3.1 72 103
r 1.36136 0 2 tcp 1040 ------- 0 0.0 3.0 20 99
+ 1.36136 2 3 tcp 1040 ------- 0 0.0 3.0 20 99
d 1.36136 2 3 tcp 1040 ------- 0 0.0 3.0 20 99
r 1.362 1 2 cbr 500 ------- 0 1.0 3.1 70 101
+ 1.362 2 3 cbr 500 ------- 0 1.0 3.1 70 101
d 1.362 2 3 cbr 500 ------- 0 1.0 3.1 70 101
+ 1.365 1 2 cbr 500 ------- 0 1.0 3.1 73 104
- 1.365 1 2 cbr 500 ------- 0 1.0 3.1 73 104
r 1.367 1 2 cbr 500 ------- 0 1.0 3.1 71 102
+ 1.367 2 3 cbr 500 ------- 0 1.0 3.1 71 102
d 1.367 2 3 cbr 500 ------- 0 1.0 3.1 71 102
+ 1.37 1 2 cbr 500 ------- 0 1.0 3.1 74 105
- 1.37 1 2 cbr 500 ------- 0 1.0 3.1 74 105
r 1.372 1 2 cbr 500 ------- 0 1.0 3.1 72 103
+ 1.372 2 3 cbr 500 ------- 0 1.0 3.1 72 103
d 1.372 2 3 cbr 500 ------- 0 1.0 3.1 72 103
+ 1.375 1 2 cbr 500 ------- 0 1.0 3.1 75 106
- 1.375 1 2 cbr 500 ------- 0 1.0 3.1 75 106
r 1.377 1 2 cbr 500 ------- 0 1.0 3.1 73 104
+ 1.377 2 3 cbr 500 ------- 0 1.0 3.1 73 104
d 1.377 2 3 cbr 500 ------- 0 1.0 3.1 73 104
+ 1.38 1 2 cbr 500 ------- 0 1.0 3.1 76 107
- 1.38 1 2 cbr 500 ------- 0 1.0 3.1 76 107
r 1.382 1 2 cbr 500 ------- 0 1.0 3.1 74 105
+ 1.382 2 3 cbr 500 ------- 0 1.0 3.1 74 105
d 1.382 2 3 cbr 500 ------- 0 1.0 3.1 74 105
+ 1.385 1 2 cbr 500 ------- 0 1.0 3.1 77 108
- 1.385 1 2 cbr 500 ------- 0 1.0 3.1 77 108
r 1.387 1 2 cbr 500 ------- 0 1.0 3.1 75 106
+ 1.387 2 3 cbr 500 ------- 0 1.0 3.1 75 106
d 1.387 2 3 cbr 500 ------- 0 1.0 3.1 75 106
+ 1.39 1 2 cbr 500 ------- 0 1.0 3.1 78 109
- 1.39 1 2 cbr 500 ------- 0 1.0 3.1 78 109
r 1.392 1 2 cbr 500 ------- 0 1.0 3.1 76 107
+ 1.392 2 3 cbr 500 ------- 0 1.0 3.1 76 107
d 1.392 2 3 cbr 500 ------- 0 1.0 3.1 76 107
- 1.39288 2 3 cbr 500 ------- 0 1.0 3.1 0 17
+ 1.395 1 2 cbr 500 ------- 0 1.0 3.1 79 110
- 1.395 1 2 cbr 500 ------- 0 1.0 3.1 79 110
r 1.397 1 2 cbr 500 ------- 0 1.0 3.1 77 108
+ 1.397 2 3 cbr 500 ------- 0 1.0 3.1 77 108
+ 1.4 1 2 cbr 500 ------- 0 1.0 3.1 80 111
- 1.4 1 2 cbr 500 ------- 0 1.0 3.1 80 111
r 1.402 1 2 cbr 500 ------- 0 1.0 3.1 78 109
+ 1.402 2 3 cbr 500 ------- 0 1.0 3.1 78 109
d 1.402 2 3 cbr 500 ------- 0 1.0 3.1 78 109
r 1.40288 2 3 tcp 1040 ------- 0 0.0 3.0 10 15
+ 1.40288 3 2 ack 40 ------- 0 3.0 0.0 10 112
- 1.40288 3 2 ack 40 ------- 0 3.0 0.0 10 112
+ 1.405 1 2 cbr 500 ------- 0 1.0 3.1 81 113
- 1.405 1 2 cbr 500 ------- 0 1.0 3.1 81 113
r 1.407 1 2 cbr 500 ------- 0 1.0 3.1 79 110
+ 1.407 2 3 cbr 500 ------- 0 1.0 3.1 79 110
d 1.407 2 3 cbr 500 ------- 0 1.0 3.1 79 110
+ 1.41 1 2 cbr 500 ------- 0 1.0 3.1 82 114
- 1.41 1 2 cbr 500 ------- 0 1.0 3.1 82 114
r 1.412 1 2 cbr 500 ------- 0 1.0 3.1 80 111
+ 1.412 2 3 cbr 500 ------- 0 1.0 3.1 80 111
d 1.412 2 3 cbr 500 ------- 0 1.0 3.1 80 111
+ 1.415 1 2 cbr 500 ------- 0 1.0 3.1 83 115
- 1.415 1 2 cbr 500 ------- 0 1.0 3.1 83 115
r 1.41608 3 2 ack 40 ------- 0 3.0 0.0 10 112
+ 1.41608 2 0 ack 40 ------- 0 3.0 0.0 10 112
- 1.41608 2 0 ack 40 ------- 0 3.0 0.0 10 112
r 1.417 1 2 cbr 500 ------- 0 1.0 3.1 81 113
+ 1.417 2 3 cbr 500 ------- 0 1.0 3.1 81 113
d 1.417 2 3 cbr 500 ------- 0 1.0 3.1 81 113
+ 1.42 1 2 cbr 500 ------- 0 1.0 3.1 84 116
- 1.42 1 2 cbr 500 ------- 0 1.0 3.1 84 116
r 1.422 1 2 cbr 500 ------- 0 1.0 3.1 82 114
+ 1.422 2 3 cbr 500 ------- 0 1.0 3.1 82 114
d 1.422 2 3 cbr 500 ------- 0 1.0 3.1 82 114
+ 1.425 1 2 cbr 500 ------- 0 1.0 3.1 85 117
- 1.425 1 2 cbr 500 ------- 0 1.0 3.1 85 117
r 1.42624 2 0 ack 40 ------- 0 3.0 0.0 10 112
+ 1.42624 0 2 tcp 1040 ------- 0 0.0 3.0 21 118
- 1.42624 0 2 tcp 1040 ------- 0 0.0 3.0 21 118
+ 1.42624 0 2 tcp 1040 ------- 0 0.0 3.0 22 119
r 1.427 1 2 cbr 500 ------- 0 1.0 3.1 83 115
+ 1.427 2 3 cbr 500 ------- 0 1.0 3.1 83 115
d 1.427 2 3 cbr 500 ------- 0 1.0 3.1 83 115
+ 1.43 1 2 cbr 500 ------- 0 1.0 3.1 86 120
- 1.43 1 2 cbr 500 ------- 0 1.0 3.1 86 120
- 1.4304 0 2 tcp 1040 ------- 0 0.0 3.0 22 119
r 1.432 1 2 cbr 500 ------- 0 1.0 3.1 84 116
+ 1.432 2 3 cbr 500 ------- 0 1.0 3.1 84 116
d 1.432 2 3 cbr 500 ------- 0 1.0 3.1 84 116
- 1.43288 2 3 cbr 500 ------- 0 1.0 3.1 1 18
+ 1.435 1 2 cbr 500 ------- 0 1.0 3.1 87 121
- 1.435 1 2 cbr 500 ------- 0 1.0 3.1 87 121
r 1.437 1 2 cbr 500 ------- 0 1.0 3.1 85 117
+ 1.437 2 3 cbr 500 ------- 0 1.0 3.1 85 117
+ 1.44 1 2 cbr 500 ------- 0 1.0 3.1 88 122
- 1.44 1 2 cbr 500 ------- 0 1.0 3.1 88 122
r 1.4404 0 2 tcp 1040 ------- 0 0.0 3.0 21 118
+ 1.4404 2 3 tcp 1040 ------- 0 0.0 3.0 21 118
d 1.4404 2 3 tcp 1040 ------- 0 0.0 3.0 21 118
r 1.442 1 2 cbr 500 ------- 0 1.0 3.1 86 120
+ 1.442 2 3 cbr 500 ------- 0 1.0 3.1 86 120
d 1.442 2 3 cbr 500 ------- 0 1.0 3.1 86 120
r 1.44288 2 3 cbr 500 ------- 0 1.0 3.1 0 17
r 1.44456 0 2 tcp 1040 ------- 0 0.0 3.0 22 119
+ 1.44456 2 3 tcp 1040 ------- 0 0.0 3.0 22 119
d 1.44456 2 3 tcp 1040 ------- 0 0.0 3.0 22 119
+ 1.445 1 2 cbr 500 ------- 0 1.0 3.1 89 123
- 1.445 1 2 cbr 500 ------- 0 1.0 3.1 89 123
r 1.447 1 2 cbr 500 ------- 0 1.0 3.1 87 121
+ 1.447 2 3 cbr 500 ------- 0 1.0 3.1 87 121
d 1.447 2 3 cbr 500 ------- 0 1.0 3.1 87 121
+ 1.45 1 2 cbr 500 ------- 0 1.0 3.1 90 124
- 1.45 1 2 cbr 500 ------- 0 1.0 3.1 90 124
r 1.452 1 2 cbr 500 ------- 0 1.0 3.1 88 122
+ 1.452 2 3 cbr 500 ------- 0 1.0 3.1 88 122
d 1.452 2 3 cbr 500 ------- 0 1.0 3.1 88 122
+ 1.455 1 2 cbr 500 ------- 0 1.0 3.1 91 125
- 1.455 1 2 cbr 500 ------- 0 1.0 3.1 91 125
r 1.457 1 2 cbr 500 ------- 0 1.0 3.1 89 123
+ 1.457 2 3 cbr 500 ------- 0 1.0 3.1 89 123
d 1.457 2 3 cbr 500 ------- 0 1.0 3.1 89 123
+ 1.46 1 2 cbr 500 ------- 0 1.0 3.1 92 126
- 1.46 1 2 cbr 500 ------- 0 1.0 3.1 92 126
r 1.462 1 2 cbr 500 ------- 0 1.0 3.1 90 124
+ 1.462 2 3 cbr 500 ------- 0 1.0 3.1 90 124
d 1.462 2 3 cbr 500 ------- 0 1.0 3.1 90 124
+ 1.465 1 2 cbr 500 ------- 0 1.0 3.1 93 127
- 1.465 1 2 cbr 500 ------- 0 1.0 3.1 93 127
r 1.467 1 2 cbr 500 ------- 0 1.0 3.1 91 125
+ 1.467 2 3 cbr 500 ------- 0 1.0 3.1 91 125
d 1.467 2 3 cbr 500 ------- 0 1.0 3.1 91 125
+ 1.47 1 2 cbr 500 ------- 0 1.0 3.1 94 128
- 1.47 1 2 cbr 500 ------- 0 1.0 3.1 94 128
r 1.472 1 2 cbr 500 ------- 0 1.0 3.1 92 126
+ 1.472 2 3 cbr 500 ------- 0 1.0 3.1 92 126
d 1.472 2 3 cbr 500 ------- 0 1.0 3.1 92 126
- 1.47288 2 3 cbr 500 ------- 0 1.0 3.1 2 19
+ 1.475 1 2 cbr 500 ------- 0 1.0 3.1 95 129
- 1.475 1 2 cbr 500 ------- 0 1.0 3.1 95 129
r 1.477 1 2 cbr 500 ------- 0 1.0 3.1 93 127
+ 1.477 2 3 cbr 500 ------- 0 1.0 3.1 93 127
+ 1.48 1 2 cbr 500 ------- 0 1.0 3.1 96 130
- 1.48 1 2 cbr 500 ------- 0 1.0 3.1 96 130
r 1.482 1 2 cbr 500 ------- 0 1.0 3.1 94 128
+ 1.482 2 3 cbr 500 ------- 0 1.0 3.1 94 128
d 1.482 2 3 cbr 500 ------- 0 1.0 3.1 94 128
r 1.48288 2 3 cbr 500 ------- 0 1.0 3.1 1 18
+ 1.485 1 2 cbr 500 ------- 0 1.0 3.1 97 131
- 1.485 1 2 cbr 500 ------- 0 1.0 3.1 97 131
r 1.487 1 2 cbr 500 ------- 0 1.0 3.1 95 129
+ 1.487 2 3 cbr 500 ------- 0 1.0 3.1 95 129
d 1.487 2 3 cbr 500 ------- 0 1.0 3.1 95 129
+ 1.49 1 2 cbr 500 ------- 0 1.0 3.1 98 132
- 1.49 1 2 cbr 500 ------- 0 1.0 3.1 98 132
r 1.492 1 2 cbr 500 ------- 0 1.0 3.1 96 130
+ 1.492 2 3 cbr 500 ------- 0 1.0 3.1 96 130
d 1.492 2 3 cbr 500 ------- 0 1.0 3.1 96 130
+ 1.495 1 2 cbr 500 ------- 0 1.0 3.1 99 133
- 1.495 1 2 cbr 500 ------- 0 1.0 3.1 99 133
r 1.497 1 2 cbr 500 ------- 0 1.0 3.1 97 131
+ 1.497 2 3 cbr 500 ------- 0 1.0 3.1 97 131
d 1.497 2 3 cbr 500 ------- 0 1.0 3.1 97 131
+ 1.5 1 2 cbr 500 ------- 0 1.0 3.1 100 134
- 1.5 1 2 cbr 500 ------- 0 1.0 3.1 100 134
r 1.502 1 2 cbr 500 ------- 0 1.0 3.1 98 132
+ 1.502 2 3 cbr 500 ------- 0 1.0 3.1 98 132
d 1.502 2 3 cbr 500 ------- 0 1.0 3.1 98 132
+ 1.505 1 2 cbr 500 ------- 0 1.0 3.1 101 135
- 1.505 1 2 cbr 500 ------- 0 1.0 3.1 101 135
r 1.507 1 2 cbr 500 ------- 0 1.0 3.1 99 133
+ 1.507 2 3 cbr 500 ------- 0 1.0 3.1 99 133
d 1.507 2 3 cbr 500 ------- 0 1.0 3.1 99 133
+ 1.51 1 2 cbr 500 ------- 0 1.0 3.1 102 136
- 1.51 1 2 cbr 500 ------- 0 1.0 3.1 102 136
r 1.512 1 2 cbr 500 ------- 0 1.0 3.1 100 134
+ 1.512 2 3 cbr 500 ------- 0 1.0 3.1 100 134
d 1.512 2 3 cbr 500 ------- 0 1.0 3.1 100 134
- 1.51288 2 3 tcp 1040 ------- 0 0.0 3.0 11 20
+ 1.515 1 2 cbr 500 ------- 0 1.0 3.1 103 137
- 1.515 1 2 cbr 500 ------- 0 1.0 3.1 103 137
r 1.517 1 2 cbr 500 ------- 0 1.0 3.1 101 135
+ 1.517 2 3 cbr 500 ------- 0 1.0 3.1 101 135
+ 1.52 1 2 cbr 500 ------- 0 1.0 3.1 104 138
- 1.52 1 2 cbr 500 ------- 0 1.0 3.1 104 138
r 1.522 1 2 cbr 500 ------- 0 1.0 3.1 102 136
+ 1.522 2 3 cbr 500 ------- 0 1.0 3.1 102 136
d 1.522 2 3 cbr 500 ------- 0 1.0 3.1 102 136
r 1.52288 2 3 cbr 500 ------- 0 1.0 3.1 2 19
+ 1.525 1 2 cbr 500 ------- 0 1.0 3.1 105 139
- 1.525 1 2 cbr 500 ------- 0 1.0 3.1 105 139
r 1.527 1 2 cbr 500 ------- 0 1.0 3.1 103 137
+ 1.527 2 3 cbr 500 ------- 0 1.0 3.1 103 137
d 1.527 2 3 cbr 500 ------- 0 1.0 3.1 103 137
+ 1.53 1 2 cbr 500 ------- 0 1.0 3.1 106 140
- 1.53 1 2 cbr 500 ------- 0 1.0 3.1 106 140
r 1.532 1 2 cbr 500 ------- 0 1.0 3.1 104 138
+ 1.532 2 3 cbr 500 ------- 0 1.0 3.1 104 138
d 1.532 2 3 cbr 500 ------- 0 1.0 3.1 104 138