+ 0.1 0 2 tcp 40 ------- 1 0.0 3.0 0 0
- 0.1 0 2 tcp 40 ------- 1 0.0 3.0 0 0
r 0.11032 0 2 tcp 40 ------- 1 0.0 3.0 0 0
+ 0.11032 2 3 tcp 40 ------- 1 0.0 3.0 0 0
- 0.11032 2 3 tcp 40 ------- 1 0.0 3.0 0 0
r 0.12096 2 3 tcp 40 ------- 1 0.0 3.0 0 0
+ 0.12096 3 2 ack 40 ------- 1 3.0 0.0 0 1
- 0.12096 3 2 ack 40 ------- 1 3.0 0.0 0 1
r 0.1316 3 2 ack 40 ------- 1 3.0 0.0 0 1
+ 0.1316 2 0 ack 40 ------- 1 3.0 0.0 0 1
- 0.1316 2 0 ack 40 ------- 1 3.0 0.0 0 1
r 0.14192 2 0 ack 40 ------- 1 3.0 0.0 0 1
+ 0.14192 0 2 tcp 1040 ------- 1 0.0 3.0 1 2
- 0.14192 0 2 tcp 1040 ------- 1 0.0 3.0 1 2
+ 0.14192 0 2 tcp 1040 ------- 1 0.0 3.0 2 3
- 0.15024 0 2 tcp 1040 ------- 1 0.0 3.0 2 3
r 0.16024 0 2 tcp 1040 ------- 1 0.0 3.0 1 2
+ 0.16024 2 3 tcp 1040 ------- 1 0.0 3.0 1 2
- 0.16024 2 3 tcp 1040 ------- 1 0.0 3.0 1 2
r 0.16856 0 2 tcp 1040 ------- 1 0.0 3.0 2 3
+ 0.16856 2 3 tcp 1040 ------- 1 0.0 3.0 2 3
- 0.17688 2 3 tcp 1040 ------- 1 0.0 3.0 2 3
r 0.18688 2 3 tcp 1040 ------- 1 0.0 3.0 1 2
+ 0.18688 3 2 ack 40 ------- 1 3.0 0.0 1 4
- 0.18688 3 2 ack 40 ------- 1 3.0 0.0 1 4
r 0.19752 3 2 ack 40 ------- 1 3.0 0.0 1 4
+ 0.19752 2 0 ack 40 ------- 1 3.0 0.0 1 4
- 0.19752 2 0 ack 40 ------- 1 3.0 0.0 1 4
+ 0.2 1 2 cbr 500 ------- 0 1.0 3.1 0 5
- 0.2 1 2 cbr 500 ------- 0 1.0 3.1 0 5
r 0.20352 2 3 tcp 1040 ------- 1 0.0 3.0 2 3
+ 0.20352 3 2 ack 40 ------- 1 3.0 0.0 2 6
- 0.20352 3 2 ack 40 ------- 1 3.0 0.0 2 6
+ 0.205 1 2 cbr 500 ------- 0 1.0 3.1 1 7
- 0.205 1 2 cbr 500 ------- 0 1.0 3.1 1 7
r 0.20784 2 0 ack 40 ------- 1 3.0 0.0 1 4
+ 0.20784 0 2 tcp 1040 ------- 1 0.0 3.0 3 8
- 0.20784 0 2 tcp 1040 ------- 1 0.0 3.0 3 8
+ 0.20784 0 2 tcp 1040 ------- 1 0.0 3.0 4 9
+ 0.21 1 2 cbr 500 ------- 0 1.0 3.1 2 10
- 0.21 1 2 cbr 500 ------- 0 1.0 3.1 2 10
r 0.214 1 2 cbr 500 ------- 0 1.0 3.1 0 5
+ 0.214 2 3 cbr 500 ------- 0 1.0 3.1 0 5
- 0.214 2 3 cbr 500 ------- 0 1.0 3.1 0 5
r 0.21416 3 2 ack 40 ------- 1 3.0 0.0 2 6
+ 0.21416 2 0 ack 40 ------- 1 3.0 0.0 2 6
- 0.21416 2 0 ack 40 ------- 1 3.0 0.0 2 6
+ 0.215 1 2 cbr 500 ------- 0 1.0 3.1 3 11
- 0.215 1 2 cbr 500 ------- 0 1.0 3.1 3 11
- 0.21616 0 2 tcp 1040 ------- 1 0.0 3.0 4 9
r 0.219 1 2 cbr 500 ------- 0 1.0 3.1 1 7
+ 0.219 2 3 cbr 500 ------- 0 1.0 3.1 1 7
+ 0.22 1 2 cbr 500 ------- 0 1.0 3.1 4 12
- 0.22 1 2 cbr 500 ------- 0 1.0 3.1 4 12
- 0.222 2 3 cbr 500 ------- 0 1.0 3.1 1 7
r 0.224 1 2 cbr 500 ------- 0 1.0 3.1 2 10
+ 0.224 2 3 cbr 500 ------- 0 1.0 3.1 2 10
r 0.22448 2 0 ack 40 ------- 1 3.0 0.0 2 6
+ 0.22448 0 2 tcp 1040 ------- 1 0.0 3.0 5 13
+ 0.22448 0 2 tcp 1040 ------- 1 0.0 3.0 6 14
- 0.22448 0 2 tcp 1040 ------- 1 0.0 3.0 5 13
+ 0.225 1 2 cbr 500 ------- 0 1.0 3.1 5 15
- 0.225 1 2 cbr 500 ------- 0 1.0 3.1 5 15
r 0.22616 0 2 tcp 1040 ------- 1 0.0 3.0 3 8
+ 0.22616 2 3 tcp 1040 ------- 1 0.0 3.0 3 8
r 0.229 1 2 cbr 500 ------- 0 1.0 3.1 3 11
+ 0.229 2 3 cbr 500 ------- 0 1.0 3.1 3 11
- 0.23 2 3 cbr 500 ------- 0 1.0 3.1 2 10
+ 0.23 1 2 cbr 500 ------- 0 1.0 3.1 6 16
- 0.23 1 2 cbr 500 ------- 0 1.0 3.1 6 16
r 0.232 2 3 cbr 500 ------- 0 1.0 3.1 0 5
- 0.2328 0 2 tcp 1040 ------- 1 0.0 3.0 6 14
r 0.234 1 2 cbr 500 ------- 0 1.0 3.1 4 12
+ 0.234 2 3 cbr 500 ------- 0 1.0 3.1 4 12
r 0.23448 0 2 tcp 1040 ------- 1 0.0 3.0 4 9
+ 0.23448 2 3 tcp 1040 ------- 1 0.0 3.0 4 9
+ 0.235 1 2 cbr 500 ------- 0 1.0 3.1 7 17
- 0.235 1 2 cbr 500 ------- 0 1.0 3.1 7 17
- 0.238 2 3 tcp 1040 ------- 1 0.0 3.0 3 8
r 0.239 1 2 cbr 500 ------- 0 1.0 3.1 5 15
+ 0.239 2 3 cbr 500 ------- 0 1.0 3.1 5 15
r 0.24 2 3 cbr 500 ------- 0 1.0 3.1 1 7
+ 0.24 1 2 cbr 500 ------- 0 1.0 3.1 8 18
- 0.24 1 2 cbr 500 ------- 0 1.0 3.1 8 18
r 0.2428 0 2 tcp 1040 ------- 1 0.0 3.0 5 13
+ 0.2428 2 3 tcp 1040 ------- 1 0.0 3.0 5 13
r 0.244 1 2 cbr 500 ------- 0 1.0 3.1 6 16
+ 0.244 2 3 cbr 500 ------- 0 1.0 3.1 6 16
+ 0.245 1 2 cbr 500 ------- 0 1.0 3.1 9 19
- 0.245 1 2 cbr 500 ------- 0 1.0 3.1 9 19
r 0.248 2 3 cbr 500 ------- 0 1.0 3.1 2 10
r 0.249 1 2 cbr 500 ------- 0 1.0 3.1 7 17
+ 0.249 2 3 cbr 500 ------- 0 1.0 3.1 7 17
+ 0.25 1 2 cbr 500 ------- 0 1.0 3.1 10 20
- 0.25 1 2 cbr 500 ------- 0 1.0 3.1 10 20
r 0.25112 0 2 tcp 1040 ------- 1 0.0 3.0 6 14
+ 0.25112 2 3 tcp 1040 ------- 1 0.0 3.0 6 14
r 0.254 1 2 cbr 500 ------- 0 1.0 3.1 8 18
+ 0.254 2 3 cbr 500 ------- 0 1.0 3.1 8 18
- 0.25464 2 3 cbr 500 ------- 0 1.0 3.1 3 11
+ 0.255 1 2 cbr 500 ------- 0 1.0 3.1 11 21
- 0.255 1 2 cbr 500 ------- 0 1.0 3.1 11 21
r 0.259 1 2 cbr 500 ------- 0 1.0 3.1 9 19
+ 0.259 2 3 cbr 500 ------- 0 1.0 3.1 9 19
+ 0.26 1 2 cbr 500 ------- 0 1.0 3.1 12 22
- 0.26 1 2 cbr 500 ------- 0 1.0 3.1 12 22
- 0.26264 2 3 cbr 500 ------- 0 1.0 3.1 4 12
r 0.264 1 2 cbr 500 ------- 0 1.0 3.1 10 20
+ 0.264 2 3 cbr 500 ------- 0 1.0 3.1 10 20
r 0.26464 2 3 tcp 1040 ------- 1 0.0 3.0 3 8
+ 0.26464 3 2 ack 40 ------- 1 3.0 0.0 3 23
- 0.26464 3 2 ack 40 ------- 1 3.0 0.0 3 23
+ 0.265 1 2 cbr 500 ------- 0 1.0 3.1 13 24
- 0.265 1 2 cbr 500 ------- 0 1.0 3.1 13 24
r 0.269 1 2 cbr 500 ------- 0 1.0 3.1 11 21
+ 0.269 2 3 cbr 500 ------- 0 1.0 3.1 11 21
+ 0.27 1 2 cbr 500 ------- 0 1.0 3.1 14 25
- 0.27 1 2 cbr 500 ------- 0 1.0 3.1 14 25
- 0.27064 2 3 tcp 1040 ------- 1 0.0 3.0 4 9
r 0.27264 2 3 cbr 500 ------- 0 1.0 3.1 3 11
r 0.274 1 2 cbr 500 ------- 0 1.0 3.1 12 22
+ 0.274 2 3 cbr 500 ------- 0 1.0 3.1 12 22
+ 0.275 1 2 cbr 500 ------- 0 1.0 3.1 15 26
- 0.275 1 2 cbr 500 ------- 0 1.0 3.1 15 26
r 0.27528 3 2 ack 40 ------- 1 3.0 0.0 3 23
+ 0.27528 2 0 ack 40 ------- 1 3.0 0.0 3 23
- 0.27528 2 0 ack 40 ------- 1 3.0 0.0 3 23
r 0.279 1 2 cbr 500 ------- 0 1.0 3.1 13 24
+ 0.279 2 3 cbr 500 ------- 0 1.0 3.1 13 24
+ 0.28 1 2 cbr 500 ------- 0 1.0 3.1 16 27
- 0.28 1 2 cbr 500 ------- 0 1.0 3.1 16 27
r 0.28064 2 3 cbr 500 ------- 0 1.0 3.1 4 12
r 0.284 1 2 cbr 500 ------- 0 1.0 3.1 14 25
+ 0.284 2 3 cbr 500 ------- 0 1.0 3.1 14 25
+ 0.285 1 2 cbr 500 ------- 0 1.0 3.1 17 28
- 0.285 1 2 cbr 500 ------- 0 1.0 3.1 17 28
r 0.2856 2 0 ack 40 ------- 1 3.0 0.0 3 23
+ 0.2856 0 2 tcp 1040 ------- 1 0.0 3.0 7 29
- 0.2856 0 2 tcp 1040 ------- 1 0.0 3.0 7 29
+ 0.2856 0 2 tcp 1040 ------- 1 0.0 3.0 8 30
- 0.28728 2 3 cbr 500 ------- 0 1.0 3.1 5 15
r 0.289 1 2 cbr 500 ------- 0 1.0 3.1 15 26
+ 0.289 2 3 cbr 500 ------- 0 1.0 3.1 15 26
+ 0.29 1 2 cbr 500 ------- 0 1.0 3.1 18 31
- 0.29 1 2 cbr 500 ------- 0 1.0 3.1 18 31
- 0.29392 0 2 tcp 1040 ------- 1 0.0 3.0 8 30
r 0.294 1 2 cbr 500 ------- 0 1.0 3.1 16 27
+ 0.294 2 3 cbr 500 ------- 0 1.0 3.1 16 27
+ 0.295 1 2 cbr 500 ------- 0 1.0 3.1 19 32
- 0.295 1 2 cbr 500 ------- 0 1.0 3.1 19 32
- 0.29528 2 3 tcp 1040 ------- 1 0.0 3.0 5 13
r 0.29728 2 3 tcp 1040 ------- 1 0.0 3.0 4 9
+ 0.29728 3 2 ack 40 ------- 1 3.0 0.0 4 33
- 0.29728 3 2 ack 40 ------- 1 3.0 0.0 4 33
r 0.299 1 2 cbr 500 ------- 0 1.0 3.1 17 28
+ 0.299 2 3 cbr 500 ------- 0 1.0 3.1 17 28
+ 0.3 1 2 cbr 500 ------- 0 1.0 3.1 20 34
- 0.3 1 2 cbr 500 ------- 0 1.0 3.1 20 34
r 0.30392 0 2 tcp 1040 ------- 1 0.0 3.0 7 29
+ 0.30392 2 3 tcp 1040 ------- 1 0.0 3.0 7 29
r 0.304 1 2 cbr 500 ------- 0 1.0 3.1 18 31
+ 0.304 2 3 cbr 500 ------- 0 1.0 3.1 18 31
+ 0.305 1 2 cbr 500 ------- 0 1.0 3.1 21 35
- 0.305 1 2 cbr 500 ------- 0 1.0 3.1 21 35
r 0.30528 2 3 cbr 500 ------- 0 1.0 3.1 5 15
r 0.30792 3 2 ack 40 ------- 1 3.0 0.0 4 33
+ 0.30792 2 0 ack 40 ------- 1 3.0 0.0 4 33
- 0.30792 2 0 ack 40 ------- 1 3.0 0.0 4 33
r 0.309 1 2 cbr 500 ------- 0 1.0 3.1 19 32
+ 0.309 2 3 cbr 500 ------- 0 1.0 3.1 19 32
+ 0.31 1 2 cbr 500 ------- 0 1.0 3.1 22 36
- 0.31 1 2 cbr 500 ------- 0 1.0 3.1 22 36
- 0.31192 2 3 cbr 500 ------- 0 1.0 3.1 6 16
r 0.31224 0 2 tcp 1040 ------- 1 0.0 3.0 8 30
+ 0.31224 2 3 tcp 1040 ------- 1 0.0 3.0 8 30
r 0.314 1 2 cbr 500 ------- 0 1.0 3.1 20 34
+ 0.314 2 3 cbr 500 ------- 0 1.0 3.1 20 34
+ 0.315 1 2 cbr 500 ------- 0 1.0 3.1 23 37
- 0.315 1 2 cbr 500 ------- 0 1.0 3.1 23 37
r 0.31824 2 0 ack 40 ------- 1 3.0 0.0 4 33
+ 0.31824 0 2 tcp 1040 ------- 1 0.0 3.0 9 38
- 0.31824 0 2 tcp 1040 ------- 1 0.0 3.0 9 38
+ 0.31824 0 2 tcp 1040 ------- 1 0.0 3.0 10 39
r 0.319 1 2 cbr 500 ------- 0 1.0 3.1 21 35
+ 0.319 2 3 cbr 500 ------- 0 1.0 3.1 21 35
- 0.31992 2 3 cbr 500 ------- 0 1.0 3.1 7 17
+ 0.32 1 2 cbr 500 ------- 0 1.0 3.1 24 40
- 0.32 1 2 cbr 500 ------- 0 1.0 3.1 24 40
r 0.32192 2 3 tcp 1040 ------- 1 0.0 3.0 5 13
+ 0.32192 3 2 ack 40 ------- 1 3.0 0.0 5 41
- 0.32192 3 2 ack 40 ------- 1 3.0 0.0 5 41
r 0.324 1 2 cbr 500 ------- 0 1.0 3.1 22 36
+ 0.324 2 3 cbr 500 ------- 0 1.0 3.1 22 36
+ 0.325 1 2 cbr 500 ------- 0 1.0 3.1 25 42
- 0.325 1 2 cbr 500 ------- 0 1.0 3.1 25 42
- 0.32656 0 2 tcp 1040 ------- 1 0.0 3.0 10 39
- 0.32792 2 3 tcp 1040 ------- 1 0.0 3.0 6 14
r 0.329 1 2 cbr 500 ------- 0 1.0 3.1 23 37
+ 0.329 2 3 cbr 500 ------- 0 1.0 3.1 23 37
r 0.32992 2 3 cbr 500 ------- 0 1.0 3.1 6 16
+ 0.33 1 2 cbr 500 ------- 0 1.0 3.1 26 43
- 0.33 1 2 cbr 500 ------- 0 1.0 3.1 26 43
r 0.33256 3 2 ack 40 ------- 1 3.0 0.0 5 41
+ 0.33256 2 0 ack 40 ------- 1 3.0 0.0 5 41
- 0.33256 2 0 ack 40 ------- 1 3.0 0.0 5 41
r 0.334 1 2 cbr 500 ------- 0 1.0 3.1 24 40
+ 0.334 2 3 cbr 500 ------- 0 1.0 3.1 24 40
+ 0.335 1 2 cbr 500 ------- 0 1.0 3.1 27 44
- 0.335 1 2 cbr 500 ------- 0 1.0 3.1 27 44
r 0.33656 0 2 tcp 1040 ------- 1 0.0 3.0 9 38
+ 0.33656 2 3 tcp 1040 ------- 1 0.0 3.0 9 38
r 0.33792 2 3 cbr 500 ------- 0 1.0 3.1 7 17
r 0.339 1 2 cbr 500 ------- 0 1.0 3.1 25 42
+ 0.339 2 3 cbr 500 ------- 0 1.0 3.1 25 42
+ 0.34 1 2 cbr 500 ------- 0 1.0 3.1 28 45
- 0.34 1 2 cbr 500 ------- 0 1.0 3.1 28 45
r 0.34288 2 0 ack 40 ------- 1 3.0 0.0 5 41
+ 0.34288 0 2 tcp 1040 ------- 1 0.0 3.0 11 46
- 0.34288 0 2 tcp 1040 ------- 1 0.0 3.0 11 46
+ 0.34288 0 2 tcp 1040 ------- 1 0.0 3.0 12 47
r 0.344 1 2 cbr 500 ------- 0 1.0 3.1 26 43
+ 0.344 2 3 cbr 500 ------- 0 1.0 3.1 26 43
- 0.34456 2 3 cbr 500 ------- 0 1.0 3.1 8 18
r 0.34488 0 2 tcp 1040 ------- 1 0.0 3.0 10 39
+ 0.34488 2 3 tcp 1040 ------- 1 0.0 3.0 10 39
+ 0.345 1 2 cbr 500 ------- 0 1.0 3.1 29 48
- 0.345 1 2 cbr 500 ------- 0 1.0 3.1 29 48
r 0.349 1 2 cbr 500 ------- 0 1.0 3.1 27 44
+ 0.349 2 3 cbr 500 ------- 0 1.0 3.1 27 44
+ 0.35 1 2 cbr 500 ------- 0 1.0 3.1 30 49
- 0.35 1 2 cbr 500 ------- 0 1.0 3.1 30 49
- 0.3512 0 2 tcp 1040 ------- 1 0.0 3.0 12 47
- 0.35256 2 3 cbr 500 ------- 0 1.0 3.1 9 19
r 0.354 1 2 cbr 500 ------- 0 1.0 3.1 28 45
+ 0.354 2 3 cbr 500 ------- 0 1.0 3.1 28 45
r 0.35456 2 3 tcp 1040 ------- 1 0.0 3.0 6 14
+ 0.35456 3 2 ack 40 ------- 1 3.0 0.0 6 50
- 0.35456 3 2 ack 40 ------- 1 3.0 0.0 6 50
+ 0.355 1 2 cbr 500 ------- 0 1.0 3.1 31 51
- 0.355 1 2 cbr 500 ------- 0 1.0 3.1 31 51
r 0.359 1 2 cbr 500 ------- 0 1.0 3.1 29 48
+ 0.359 2 3 cbr 500 ------- 0 1.0 3.1 29 48
+ 0.36 1 2 cbr 500 ------- 0 1.0 3.1 32 52
- 0.36 1 2 cbr 500 ------- 0 1.0 3.1 32 52
- 0.36056 2 3 cbr 500 ------- 0 1.0 3.1 10 20
r 0.3612 0 2 tcp 1040 ------- 1 0.0 3.0 11 46
+ 0.3612 2 3 tcp 1040 ------- 1 0.0 3.0 11 46
r 0.36256 2 3 cbr 500 ------- 0 1.0 3.1 8 18
r 0.364 1 2 cbr 500 ------- 0 1.0 3.1 30 49
+ 0.364 2 3 cbr 500 ------- 0 1.0 3.1 30 49
+ 0.365 1 2 cbr 500 ------- 0 1.0 3.1 33 53
- 0.365 1 2 cbr 500 ------- 0 1.0 3.1 33 53
r 0.3652 3 2 ack 40 ------- 1 3.0 0.0 6 50
+ 0.3652 2 0 ack 40 ------- 1 3.0 0.0 6 50
- 0.3652 2 0 ack 40 ------- 1 3.0 0.0 6 50
- 0.36856 2 3 cbr 500 ------- 0 1.0 3.1 11 21
r 0.369 1 2 cbr 500 ------- 0 1.0 3.1 31 51
+ 0.369 2 3 cbr 500 ------- 0 1.0 3.1 31 51
r 0.36952 0 2 tcp 1040 ------- 1 0.0 3.0 12 47
+ 0.36952 2 3 tcp 1040 ------- 1 0.0 3.0 12 47
+ 0.37 1 2 cbr 500 ------- 0 1.0 3.1 34 54
- 0.37 1 2 cbr 500 ------- 0 1.0 3.1 34 54
r 0.37056 2 3 cbr 500 ------- 0 1.0 3.1 9 19
r 0.374 1 2 cbr 500 ------- 0 1.0 3.1 32 52
+ 0.374 2 3 cbr 500 ------- 0 1.0 3.1 32 52
+ 0.375 1 2 cbr 500 ------- 0 1.0 3.1 35 55
- 0.375 1 2 cbr 500 ------- 0 1.0 3.1 35 55
r 0.37552 2 0 ack 40 ------- 1 3.0 0.0 6 50
+ 0.37552 0 2 tcp 1040 ------- 1 0.0 3.0 13 56
- 0.37552 0 2 tcp 1040 ------- 1 0.0 3.0 13 56
+ 0.37552 0 2 tcp 1040 ------- 1 0.0 3.0 14 57
- 0.37656 2 3 cbr 500 ------- 0 1.0 3.1 12 22
r 0.37856 2 3 cbr 500 ------- 0 1.0 3.1 10 20
r 0.379 1 2 cbr 500 ------- 0 1.0 3.1 33 53
+ 0.379 2 3 cbr 500 ------- 0 1.0 3.1 33 53
+ 0.38 1 2 cbr 500 ------- 0 1.0 3.1 36 58
- 0.38 1 2 cbr 500 ------- 0 1.0 3.1 36 58
- 0.38384 0 2 tcp 1040 ------- 1 0.0 3.0 14 57
r 0.384 1 2 cbr 500 ------- 0 1.0 3.1 34 54
+ 0.384 2 3 cbr 500 ------- 0 1.0 3.1 34 54
- 0.38456 2 3 cbr 500 ------- 0 1.0 3.1 13 24
+ 0.385 1 2 cbr 500 ------- 0 1.0 3.1 37 59
- 0.385 1 2 cbr 500 ------- 0 1.0 3.1 37 59
r 0.38656 2 3 cbr 500 ------- 0 1.0 3.1 11 21
r 0.389 1 2 cbr 500 ------- 0 1.0 3.1 35 55
+ 0.389 2 3 cbr 500 ------- 0 1.0 3.1 35 55
+ 0.39 1 2 cbr 500 ------- 0 1.0 3.1 38 60
- 0.39 1 2 cbr 500 ------- 0 1.0 3.1 38 60
- 0.39256 2 3 cbr 500 ------- 0 1.0 3.1 14 25
r 0.39384 0 2 tcp 1040 ------- 1 0.0 3.0 13 56
+ 0.39384 2 3 tcp 1040 ------- 1 0.0 3.0 13 56
r 0.394 1 2 cbr 500 ------- 0 1.0 3.1 36 58
+ 0.394 2 3 cbr 500 ------- 0 1.0 3.1 36 58
r 0.39456 2 3 cbr 500 ------- 0 1.0 3.1 12 22
+ 0.395 1 2 cbr 500 ------- 0 1.0 3.1 39 61
- 0.395 1 2 cbr 500 ------- 0 1.0 3.1 39 61
r 0.399 1 2 cbr 500 ------- 0 1.0 3.1 37 59
+ 0.399 2 3 cbr 500 ------- 0 1.0 3.1 37 59
+ 0.4 1 2 cbr 500 ------- 0 1.0 3.1 40 62
- 0.4 1 2 cbr 500 ------- 0 1.0 3.1 40 62
- 0.40056 2 3 cbr 500 ------- 0 1.0 3.1 15 26
r 0.40216 0 2 tcp 1040 ------- 1 0.0 3.0 14 57
+ 0.40216 2 3 tcp 1040 ------- 1 0.0 3.0 14 57
r 0.40256 2 3 cbr 500 ------- 0 1.0 3.1 13 24
r 0.404 1 2 cbr 500 ------- 0 1.0 3.1 38 60
+ 0.404 2 3 cbr 500 ------- 0 1.0 3.1 38 60
+ 0.405 1 2 cbr 500 ------- 0 1.0 3.1 41 63
- 0.405 1 2 cbr 500 ------- 0 1.0 3.1 41 63
- 0.40856 2 3 cbr 500 ------- 0 1.0 3.1 16 27
r 0.409 1 2 cbr 500 ------- 0 1.0 3.1 39 61
+ 0.409 2 3 cbr 500 ------- 0 1.0 3.1 39 61
+ 0.41 1 2 cbr 500 ------- 0 1.0 3.1 42 64
- 0.41 1 2 cbr 500 ------- 0 1.0 3.1 42 64
r 0.41056 2 3 cbr 500 ------- 0 1.0 3.1 14 25
r 0.414 1 2 cbr 500 ------- 0 1.0 3.1 40 62
+ 0.414 2 3 cbr 500 ------- 0 1.0 3.1 40 62
+ 0.415 1 2 cbr 500 ------- 0 1.0 3.1 43 65
- 0.415 1 2 cbr 500 ------- 0 1.0 3.1 43 65
- 0.41656 2 3 cbr 500 ------- 0 1.0 3.1 17 28
r 0.41856 2 3 cbr 500 ------- 0 1.0 3.1 15 26
r 0.419 1 2 cbr 500 ------- 0 1.0 3.1 41 63
+ 0.419 2 3 cbr 500 ------- 0 1.0 3.1 41 63
+ 0.42 1 2 cbr 500 ------- 0 1.0 3.1 44 66
- 0.42 1 2 cbr 500 ------- 0 1.0 3.1 44 66
r 0.424 1 2 cbr 500 ------- 0 1.0 3.1 42 64
+ 0.424 2 3 cbr 500 ------- 0 1.0 3.1 42 64
- 0.42456 2 3 tcp 1040 ------- 1 0.0 3.0 7 29
+ 0.425 1 2 cbr 500 ------- 0 1.0 3.1 45 67
- 0.425 1 2 cbr 500 ------- 0 1.0 3.1 45 67
r 0.42656 2 3 cbr 500 ------- 0 1.0 3.1 16 27
r 0.429 1 2 cbr 500 ------- 0 1.0 3.1 43 65
+ 0.429 2 3 cbr 500 ------- 0 1.0 3.1 43 65
+ 0.43 1 2 cbr 500 ------- 0 1.0 3.1 46 68
- 0.43 1 2 cbr 500 ------- 0 1.0 3.1 46 68
r 0.434 1 2 cbr 500 ------- 0 1.0 3.1 44 66
+ 0.434 2 3 cbr 500 ------- 0 1.0 3.1 44 66
r 0.43456 2 3 cbr 500 ------- 0 1.0 3.1 17 28
+ 0.435 1 2 cbr 500 ------- 0 1.0 3.1 47 69
- 0.435 1 2 cbr 500 ------- 0 1.0 3.1 47 69
r 0.439 1 2 cbr 500 ------- 0 1.0 3.1 45 67
+ 0.439 2 3 cbr 500 ------- 0 1.0 3.1 45 67
+ 0.44 1 2 cbr 500 ------- 0 1.0 3.1 48 70
- 0.44 1 2 cbr 500 ------- 0 1.0 3.1 48 70
- 0.4412 2 3 cbr 500 ------- 0 1.0 3.1 18 31
r 0.444 1 2 cbr 500 ------- 0 1.0 3.1 46 68
+ 0.444 2 3 cbr 500 ------- 0 1.0 3.1 46 68
+ 0.445 1 2 cbr 500 ------- 0 1.0 3.1 49 71
- 0.445 1 2 cbr 500 ------- 0 1.0 3.1 49 71
r 0.449 1 2 cbr 500 ------- 0 1.0 3.1 47 69
+ 0.449 2 3 cbr 500 ------- 0 1.0 3.1 47 69
- 0.4492 2 3 cbr 500 ------- 0 1.0 3.1 19 32
+ 0.45 1 2 cbr 500 ------- 0 1.0 3.1 50 72
- 0.45 1 2 cbr 500 ------- 0 1.0 3.1 50 72
r 0.4512 2 3 tcp 1040 ------- 1 0.0 3.0 7 29
+ 0.4512 3 2 ack 40 ------- 1 3.0 0.0 7 73
- 0.4512 3 2 ack 40 ------- 1 3.0 0.0 7 73
r 0.454 1 2 cbr 500 ------- 0 1.0 3.1 48 70
+ 0.454 2 3 cbr 500 ------- 0 1.0 3.1 48 70
+ 0.455 1 2 cbr 500 ------- 0 1.0 3.1 51 74
- 0.455 1 2 cbr 500 ------- 0 1.0 3.1 51 74
- 0.4572 2 3 tcp 1040 ------- 1 0.0 3.0 8 30
r 0.459 1 2 cbr 500 ------- 0 1.0 3.1 49 71
+ 0.459 2 3 cbr 500 ------- 0 1.0 3.1 49 71
r 0.4592 2 3 cbr 500 ------- 0 1.0 3.1 18 31
+ 0.46 1 2 cbr 500 ------- 0 1.0 3.1 52 75
- 0.46 1 2 cbr 500 ------- 0 1.0 3.1 52 75
r 0.46184 3 2 ack 40 ------- 1 3.0 0.0 7 73
+ 0.46184 2 0 ack 40 ------- 1 3.0 0.0 7 73
- 0.46184 2 0 ack 40 ------- 1 3.0 0.0 7 73
r 0.464 1 2 cbr 500 ------- 0 1.0 3.1 50 72
+ 0.464 2 3 cbr 500 ------- 0 1.0 3.1 50 72
+ 0.465 1 2 cbr 500 ------- 0 1.0 3.1 53 76
- 0.465 1 2 cbr 500 ------- 0 1.0 3.1 53 76
r 0.4672 2 3 cbr 500 ------- 0 1.0 3.1 19 32
r 0.469 1 2 cbr 500 ------- 0 1.0 3.1 51 74
+ 0.469 2 3 cbr 500 ------- 0 1.0 3.1 51 74
+ 0.47 1 2 cbr 500 ------- 0 1.0 3.1 54 77
- 0.47 1 2 cbr 500 ------- 0 1.0 3.1 54 77
r 0.47216 2 0 ack 40 ------- 1 3.0 0.0 7 73
+ 0.47216 0 2 tcp 1040 ------- 1 0.0 3.0 15 78
- 0.47216 0 2 tcp 1040 ------- 1 0.0 3.0 15 78
+ 0.47216 0 2 tcp 1040 ------- 1 0.0 3.0 16 79
- 0.47384 2 3 cbr 500 ------- 0 1.0 3.1 20 34
r 0.474 1 2 cbr 500 ------- 0 1.0 3.1 52 75
+ 0.474 2 3 cbr 500 ------- 0 1.0 3.1 52 75
+ 0.475 1 2 cbr 500 ------- 0 1.0 3.1 55 80
- 0.475 1 2 cbr 500 ------- 0 1.0 3.1 55 80
r 0.479 1 2 cbr 500 ------- 0 1.0 3.1 53 76
+ 0.479 2 3 cbr 500 ------- 0 1.0 3.1 53 76
+ 0.48 1 2 cbr 500 ------- 0 1.0 3.1 56 81
- 0.48 1 2 cbr 500 ------- 0 1.0 3.1 56 81
- 0.48048 0 2 tcp 1040 ------- 1 0.0 3.0 16 79
- 0.48184 2 3 cbr 500 ------- 0 1.0 3.1 21 35
r 0.48384 2 3 tcp 1040 ------- 1 0.0 3.0 8 30
+ 0.48384 3 2 ack 40 ------- 1 3.0 0.0 8 82
- 0.48384 3 2 ack 40 ------- 1 3.0 0.0 8 82
r 0.484 1 2 cbr 500 ------- 0 1.0 3.1 54 77
+ 0.484 2 3 cbr 500 ------- 0 1.0 3.1 54 77
+ 0.485 1 2 cbr 500 ------- 0 1.0 3.1 57 83
- 0.485 1 2 cbr 500 ------- 0 1.0 3.1 57 83
r 0.489 1 2 cbr 500 ------- 0 1.0 3.1 55 80
+ 0.489 2 3 cbr 500 ------- 0 1.0 3.1 55 80
- 0.48984 2 3 cbr 500 ------- 0 1.0 3.1 22 36
+ 0.49 1 2 cbr 500 ------- 0 1.0 3.1 58 84
- 0.49 1 2 cbr 500 ------- 0 1.0 3.1 58 84
r 0.49048 0 2 tcp 1040 ------- 1 0.0 3.0 15 78
+ 0.49048 2 3 tcp 1040 ------- 1 0.0 3.0 15 78
r 0.49184 2 3 cbr 500 ------- 0 1.0 3.1 20 34
r 0.494 1 2 cbr 500 ------- 0 1.0 3.1 56 81
+ 0.494 2 3 cbr 500 ------- 0 1.0 3.1 56 81
r 0.49448 3 2 ack 40 ------- 1 3.0 0.0 8 82
+ 0.49448 2 0 ack 40 ------- 1 3.0 0.0 8 82
- 0.49448 2 0 ack 40 ------- 1 3.0 0.0 8 82
+ 0.495 1 2 cbr 500 ------- 0 1.0 3.1 59 85
- 0.495 1 2 cbr 500 ------- 0 1.0 3.1 59 85
- 0.49784 2 3 cbr 500 ------- 0 1.0 3.1 23 37
r 0.4988 0 2 tcp 1040 ------- 1 0.0 3.0 16 79
+ 0.4988 2 3 tcp 1040 ------- 1 0.0 3.0 16 79
r 0.499 1 2 cbr 500 ------- 0 1.0 3.1 57 83
+ 0.499 2 3 cbr 500 ------- 0 1.0 3.1 57 83
r 0.49984 2 3 cbr 500 ------- 0 1.0 3.1 21 35
+ 0.5 1 2 cbr 500 ------- 0 1.0 3.1 60 86
- 0.5 1 2 cbr 500 ------- 0 1.0 3.1 60 86
r 0.504 1 2 cbr 500 ------- 0 1.0 3.1 58 84
+ 0.504 2 3 cbr 500 ------- 0 1.0 3.1 58 84
r 0.5048 2 0 ack 40 ------- 1 3.0 0.0 8 82
+ 0.5048 0 2 tcp 1040 ------- 1 0.0 3.0 17 87
- 0.5048 0 2 tcp 1040 ------- 1 0.0 3.0 17 87
+ 0.5048 0 2 tcp 1040 ------- 1 0.0 3.0 18 88
+ 0.505 1 2 cbr 500 ------- 0 1.0 3.1 61 89
- 0.505 1 2 cbr 500 ------- 0 1.0 3.1 61 89
- 0.50584 2 3 cbr 500 ------- 0 1.0 3.1 24 40
r 0.50784 2 3 cbr 500 ------- 0 1.0 3.1 22 36
r 0.509 1 2 cbr 500 ------- 0 1.0 3.1 59 85
+ 0.509 2 3 cbr 500 ------- 0 1.0 3.1 59 85
+ 0.51 1 2 cbr 500 ------- 0 1.0 3.1 62 90
- 0.51 1 2 cbr 500 ------- 0 1.0 3.1 62 90
- 0.51312 0 2 tcp 1040 ------- 1 0.0 3.0 18 88
- 0.51384 2 3 tcp 1040 ------- 1 0.0 3.0 9 38
r 0.514 1 2 cbr 500 ------- 0 1.0 3.1 60 86
+ 0.514 2 3 cbr 500 ------- 0 1.0 3.1 60 86
+ 0.515 1 2 cbr 500 ------- 0 1.0 3.1 63 91
- 0.515 1 2 cbr 500 ------- 0 1.0 3.1 63 91
r 0.51584 2 3 cbr 500 ------- 0 1.0 3.1 23 37
r 0.519 1 2 cbr 500 ------- 0 1.0 3.1 61 89
+ 0.519 2 3 cbr 500 ------- 0 1.0 3.1 61 89
+ 0.52 1 2 cbr 500 ------- 0 1.0 3.1 64 92
- 0.52 1 2 cbr 500 ------- 0 1.0 3.1 64 92
r 0.52312 0 2 tcp 1040 ------- 1 0.0 3.0 17 87
+ 0.52312 2 3 tcp 1040 ------- 1 0.0 3.0 17 87
r 0.52384 2 3 cbr 500 ------- 0 1.0 3.1 24 40
r 0.524 1 2 cbr 500 ------- 0 1.0 3.1 62 90
+ 0.524 2 3 cbr 500 ------- 0 1.0 3.1 62 90
+ 0.525 1 2 cbr 500 ------- 0 1.0 3.1 65 93
- 0.525 1 2 cbr 500 ------- 0 1.0 3.1 65 93
r 0.529 1 2 cbr 500 ------- 0 1.0 3.1 63 91
+ 0.529 2 3 cbr 500 ------- 0 1.0 3.1 63 91
+ 0.53 1 2 cbr 500 ------- 0 1.0 3.1 66 94
- 0.53 1 2 cbr 500 ------- 0 1.0 3.1 66 94
- 0.53048 2 3 cbr 500 ------- 0 1.0 3.1 25 42
r 0.53144 0 2 tcp 1040 ------- 1 0.0 3.0 18 88
+ 0.53144 2 3 tcp 1040 ------- 1 0.0 3.0 18 88
r 0.534 1 2 cbr 500 ------- 0 1.0 3.1 64 92
+ 0.534 2 3 cbr 500 ------- 0 1.0 3.1 64 92
+ 0.535 1 2 cbr 500 ------- 0 1.0 3.1 67 95
- 0.535 1 2 cbr 500 ------- 0 1.0 3.1 67 95
- 0.53848 2 3 cbr 500 ------- 0 1.0 3.1 26 43
r 0.539 1 2 cbr 500 ------- 0 1.0 3.1 65 93
+ 0.539 2 3 cbr 500 ------- 0 1.0 3.1 65 93
+ 0.54 1 2 cbr 500 ------- 0 1.0 3.1 68 96
- 0.54 1 2 cbr 500 ------- 0 1.0 3.1 68 96
r 0.54048 2 3 tcp 1040 ------- 1 0.0 3.0 9 38
+ 0.54048 3 2 ack 40 ------- 1 3.0 0.0 9 97
- 0.54048 3 2 ack 40 ------- 1 3.0 0.0 9 97
r 0.544 1 2 cbr 500 ------- 0 1.0 3.1 66 94
+ 0.544 2 3 cbr 500 ------- 0 1.0 3.1 66 94
+ 0.545 1 2 cbr 500 ------- 0 1.0 3.1 69 98
- 0.545 1 2 cbr 500 ------- 0 1.0 3.1 69 98
- 0.54648 2 3 tcp 1040 ------- 1 0.0 3.0 10 39
r 0.54848 2 3 cbr 500 ------- 0 1.0 3.1 25 42
r 0.549 1 2 cbr 500 ------- 0 1.0 3.1 67 95
+ 0.549 2 3 cbr 500 ------- 0 1.0 3.1 67 95
+ 0.55 1 2 cbr 500 ------- 0 1.0 3.1 70 99
- 0.55 1 2 cbr 500 ------- 0 1.0 3.1 70 99
r 0.55112 3 2 ack 40 ------- 1 3.0 0.0 9 97
+ 0.55112 2 0 ack 40 ------- 1 3.0 0.0 9 97
- 0.55112 2 0 ack 40 ------- 1 3.0 0.0 9 97
r 0.554 1 2 cbr 500 ------- 0 1.0 3.1 68 96
+ 0.554 2 3 cbr 500 ------- 0 1.0 3.1 68 96
d 0.554 2 3 cbr 500 ------- 0 1.0 3.1 68 96
+ 0.555 1 2 cbr 500 ------- 0 1.0 3.1 71 100
- 0.555 1 2 cbr 500 ------- 0 1.0 3.1 71 100
r 0.55648 2 3 cbr 500 ------- 0 1.0 3.1 26 43
r 0.559 1 2 cbr 500 ------- 0 1.0 3.1 69 98
+ 0.559 2 3 cbr 500 ------- 0 1.0 3.1 69 98
d 0.559 2 3 cbr 500 ------- 0 1.0 3.1 69 98
+ 0.56 1 2 cbr 500 ------- 0 1.0 3.1 72 101
- 0.56 1 2 cbr 500 ------- 0 1.0 3.1 72 101
r 0.56144 2 0 ack 40 ------- 1 3.0 0.0 9 97
+ 0.56144 0 2 tcp 1040 ------- 1 0.0 3.0 19 102
- 0.56144 0 2 tcp 1040 ------- 1 0.0 3.0 19 102
+ 0.56144 0 2 tcp 1040 ------- 1 0.0 3.0 20 103
- 0.56312 2 3 cbr 500 ------- 0 1.0 3.1 27 44
r 0.564 1 2 cbr 500 ------- 0 1.0 3.1 70 99
+ 0.564 2 3 cbr 500 ------- 0 1.0 3.1 70 99
+ 0.565 1 2 cbr 500 ------- 0 1.0 3.1 73 104
- 0.565 1 2 cbr 500 ------- 0 1.0 3.1 73 104
r 0.569 1 2 cbr 500 ------- 0 1.0 3.1 71 100
+ 0.569 2 3 cbr 500 ------- 0 1.0 3.1 71 100
d 0.569 2 3 cbr 500 ------- 0 1.0 3.1 71 100
- 0.56976 0 2 tcp 1040 ------- 1 0.0 3.0 20 103
+ 0.57 1 2 cbr 500 ------- 0 1.0 3.1 74 105
- 0.57 1 2 cbr 500 ------- 0 1.0 3.1 74 105
- 0.57112 2 3 cbr 500 ------- 0 1.0 3.1 28 45
r 0.57312 2 3 tcp 1040 ------- 1 0.0 3.0 10 39
+ 0.57312 3 2 ack 40 ------- 1 3.0 0.0 10 106
- 0.57312 3 2 ack 40 ------- 1 3.0 0.0 10 106
r 0.574 1 2 cbr 500 ------- 0 1.0 3.1 72 101
+ 0.574 2 3 cbr 500 ------- 0 1.0 3.1 72 101
+ 0.575 1 2 cbr 500 ------- 0 1.0 3.1 75 107
- 0.575 1 2 cbr 500 ------- 0 1.0 3.1 75 107
r 0.579 1 2 cbr 500 ------- 0 1.0 3.1 73 104
+ 0.579 2 3 cbr 500 ------- 0 1.0 3.1 73 104
d 0.579 2 3 cbr 500 ------- 0 1.0 3.1 73 104
- 0.57912 2 3 cbr 500 ------- 0 1.0 3.1 29 48
r 0.57976 0 2 tcp 1040 ------- 1 0.0 3.0 19 102
+ 0.57976 2 3 tcp 1040 ------- 1 0.0 3.0 19 102
+ 0.58 1 2 cbr 500 ------- 0 1.0 3.1 76 108
- 0.58 1 2 cbr 500 ------- 0 1.0 3.1 76 108
r 0.58112 2 3 cbr 500 ------- 0 1.0 3.1 27 44
r 0.58376 3 2 ack 40 ------- 1 3.0 0.0 10 106
+ 0.58376 2 0 ack 40 ------- 1 3.0 0.0 10 106
- 0.58376 2 0 ack 40 ------- 1 3.0 0.0 10 106
r 0.584 1 2 cbr 500 ------- 0 1.0 3.1 74 105
+ 0.584 2 3 cbr 500 ------- 0 1.0 3.1 74 105
d 0.584 2 3 cbr 500 ------- 0 1.0 3.1 74 105
+ 0.585 1 2 cbr 500 ------- 0 1.0 3.1 77 109
- 0.585 1 2 cbr 500 ------- 0 1.0 3.1 77 109
- 0.58712 2 3 tcp 1040 ------- 1 0.0 3.0 11 46
r 0.58808 0 2 tcp 1040 ------- 1 0.0 3.0 20 103
+ 0.58808 2 3 tcp 1040 ------- 1 0.0 3.0 20 103
r 0.589 1 2 cbr 500 ------- 0 1.0 3.1 75 107
+ 0.589 2 3 cbr 500 ------- 0 1.0 3.1 75 107
d 0.589 2 3 cbr 500 ------- 0 1.0 3.1 75 107
r 0.58912 2 3 cbr 500 ------- 0 1.0 3.1 28 45
+ 0.59 1 2 cbr 500 ------- 0 1.0 3.1 78 110
- 0.59 1 2 cbr 500 ------- 0 1.0 3.1 78 110
r 0.594 1 2 cbr 500 ------- 0 1.0 3.1 76 108
+ 0.594 2 3 cbr 500 ------- 0 1.0 3.1 76 108
d 0.594 2 3 cbr 500 ------- 0 1.0 3.1 76 108
r 0.59408 2 0 ack 40 ------- 1 3.0 0.0 10 106
+ 0.59408 0 2 tcp 1040 ------- 1 0.0 3.0 21 111
- 0.59408 0 2 tcp 1040 ------- 1 0.0 3.0 21 111
+ 0.59408 0 2 tcp 1040 ------- 1 0.0 3.0 22 112
+ 0.595 1 2 cbr 500 ------- 0 1.0 3.1 79 113
- 0.595 1 2 cbr 500 ------- 0 1.0 3.1 79 113
r 0.59712 2 3 cbr 500 ------- 0 1.0 3.1 29 48
r 0.599 1 2 cbr 500 ------- 0 1.0 3.1 77 109
+ 0.599 2 3 cbr 500 ------- 0 1.0 3.1 77 109
d 0.599 2 3 cbr 500 ------- 0 1.0 3.1 77 109
+ 0.6 1 2 cbr 500 ------- 0 1.0 3.1 80 114
- 0.6 1 2 cbr 500 ------- 0 1.0 3.1 80 114
- 0.6024 0 2 tcp 1040 ------- 1 0.0 3.0 22 112
- 0.60376 2 3 cbr 500 ------- 0 1.0 3.1 30 49
r 0.604 1 2 cbr 500 ------- 0 1.0 3.1 78 110
+ 0.604 2 3 cbr 500 ------- 0 1.0 3.1 78 110
+ 0.605 1 2 cbr 500 ------- 0 1.0 3.1 81 115
- 0.605 1 2 cbr 500 ------- 0 1.0 3.1 81 115
r 0.609 1 2 cbr 500 ------- 0 1.0 3.1 79 113
+ 0.609 2 3 cbr 500 ------- 0 1.0 3.1 79 113
d 0.609 2 3 cbr 500 ------- 0 1.0 3.1 79 113
+ 0.61 1 2 cbr 500 ------- 0 1.0 3.1 82 116
- 0.61 1 2 cbr 500 ------- 0 1.0 3.1 82 116
- 0.61176 2 3 cbr 500 ------- 0 1.0 3.1 31 51
r 0.6124 0 2 tcp 1040 ------- 1 0.0 3.0 21 111
+ 0.6124 2 3 tcp 1040 ------- 1 0.0 3.0 21 111
r 0.61376 2 3 tcp 1040 ------- 1 0.0 3.0 11 46
+ 0.61376 3 2 ack 40 ------- 1 3.0 0.0 11 117
- 0.61376 3 2 ack 40 ------- 1 3.0 0.0 11 117
r 0.614 1 2 cbr 500 ------- 0 1.0 3.1 80 114
+ 0.614 2 3 cbr 500 ------- 0 1.0 3.1 80 114
d 0.614 2 3 cbr 500 ------- 0 1.0 3.1 80 114
+ 0.615 1 2 cbr 500 ------- 0 1.0 3.1 83 118
- 0.615 1 2 cbr 500 ------- 0 1.0 3.1 83 118
r 0.619 1 2 cbr 500 ------- 0 1.0 3.1 81 115
+ 0.619 2 3 cbr 500 ------- 0 1.0 3.1 81 115
d 0.619 2 3 cbr 500 ------- 0 1.0 3.1 81 115
- 0.61976 2 3 tcp 1040 ------- 1 0.0 3.0 12 47
+ 0.62 1 2 cbr 500 ------- 0 1.0 3.1 84 119
- 0.62 1 2 cbr 500 ------- 0 1.0 3.1 84 119
r 0.62072 0 2 tcp 1040 ------- 1 0.0 3.0 22 112
+ 0.62072 2 3 tcp 1040 ------- 1 0.0 3.0 22 112
r 0.62176 2 3 cbr 500 ------- 0 1.0 3.1 30 49
r 0.624 1 2 cbr 500 ------- 0 1.0 3.1 82 116
+ 0.624 2 3 cbr 500 ------- 0 1.0 3.1 82 116
d 0.624 2 3 cbr 500 ------- 0 1.0 3.1 82 116
r 0.6244 3 2 ack 40 ------- 1 3.0 0.0 11 117
+ 0.6244 2 0 ack 40 ------- 1 3.0 0.0 11 117
- 0.6244 2 0 ack 40 ------- 1 3.0 0.0 11 117
+ 0.625 1 2 cbr 500 ------- 0 1.0 3.1 85 120
- 0.625 1 2 cbr 500 ------- 0 1.0 3.1 85 120
r 0.629 1 2 cbr 500 ------- 0 1.0 3.1 83 118
+ 0.629 2 3 cbr 500 ------- 0 1.0 3.1 83 118
d 0.629 2 3 cbr 500 ------- 0 1.0 3.1 83 118
r 0.62976 2 3 cbr 500 ------- 0 1.0 3.1 31 51
+ 0.63 1 2 cbr 500 ------- 0 1.0 3.1 86 121
- 0.63 1 2 cbr 500 ------- 0 1.0 3.1 86 121
r 0.634 1 2 cbr 500 ------- 0 1.0 3.1 84 119
+ 0.634 2 3 cbr 500 ------- 0 1.0 3.1 84 119
d 0.634 2 3 cbr 500 ------- 0 1.0 3.1 84 119
r 0.63472 2 0 ack 40 ------- 1 3.0 0.0 11 117
+ 0.63472 0 2 tcp 1040 ------- 1 0.0 3.0 23 122
- 0.63472 0 2 tcp 1040 ------- 1 0.0 3.0 23 122
+ 0.63472 0 2 tcp 1040 ------- 1 0.0 3.0 24 123
+ 0.635 1 2 cbr 500 ------- 0 1.0 3.1 87 124
- 0.635 1 2 cbr 500 ------- 0 1.0 3.1 87 124
- 0.6364 2 3 cbr 500 ------- 0 1.0 3.1 32 52
r 0.639 1 2 cbr 500 ------- 0 1.0 3.1 85 120
+ 0.639 2 3 cbr 500 ------- 0 1.0 3.1 85 120
+ 0.64 1 2 cbr 500 ------- 0 1.0 3.1 88 125
- 0.64 1 2 cbr 500 ------- 0 1.0 3.1 88 125
- 0.64304 0 2 tcp 1040 ------- 1 0.0 3.0 24 123
r 0.644 1 2 cbr 500 ------- 0 1.0 3.1 86 121
+ 0.644 2 3 cbr 500 ------- 0 1.0 3.1 86 121
d 0.644 2 3 cbr 500 ------- 0 1.0 3.1 86 121
- 0.6444 2 3 cbr 500 ------- 0 1.0 3.1 33 53
+ 0.645 1 2 cbr 500 ------- 0 1.0 3.1 89 126
- 0.645 1 2 cbr 500 ------- 0 1.0 3.1 89 126
r 0.6464 2 3 tcp 1040 ------- 1 0.0 3.0 12 47
+ 0.6464 3 2 ack 40 ------- 1 3.0 0.0 12 127
- 0.6464 3 2 ack 40 ------- 1 3.0 0.0 12 127
r 0.649 1 2 cbr 500 ------- 0 1.0 3.1 87 124
+ 0.649 2 3 cbr 500 ------- 0 1.0 3.1 87 124
+ 0.65 1 2 cbr 500 ------- 0 1.0 3.1 90 128
- 0.65 1 2 cbr 500 ------- 0 1.0 3.1 90 128
- 0.6524 2 3 cbr 500 ------- 0 1.0 3.1 34 54
r 0.65304 0 2 tcp 1040 ------- 1 0.0 3.0 23 122
+ 0.65304 2 3 tcp 1040 ------- 1 0.0 3.0 23 122
r 0.654 1 2 cbr 500 ------- 0 1.0 3.1 88 125
+ 0.654 2 3 cbr 500 ------- 0 1.0 3.1 88 125
d 0.654 2 3 cbr 500 ------- 0 1.0 3.1 88 125
r 0.6544 2 3 cbr 500 ------- 0 1.0 3.1 32 52
+ 0.655 1 2 cbr 500 ------- 0 1.0 3.1 91 129
- 0.655 1 2 cbr 500 ------- 0 1.0 3.1 91 129
r 0.65704 3 2 ack 40 ------- 1 3.0 0.0 12 127
+ 0.65704 2 0 ack 40 ------- 1 3.0 0.0 12 127
- 0.65704 2 0 ack 40 ------- 1 3.0 0.0 12 127
r 0.659 1 2 cbr 500 ------- 0 1.0 3.1 89 126
+ 0.659 2 3 cbr 500 ------- 0 1.0 3.1 89 126
d 0.659 2 3 cbr 500 ------- 0 1.0 3.1 89 126
+ 0.66 1 2 cbr 500 ------- 0 1.0 3.1 92 130
- 0.66 1 2 cbr 500 ------- 0 1.0 3.1 92 130
- 0.6604 2 3 cbr 500 ------- 0 1.0 3.1 35 55
r 0.66136 0 2 tcp 1040 ------- 1 0.0 3.0 24 123
+ 0.66136 2 3 tcp 1040 ------- 1 0.0 3.0 24 123
r 0.6624 2 3 cbr 500 ------- 0 1.0 3.1 33 53
r 0.664 1 2 cbr 500 ------- 0 1.0 3.1 90 128
+ 0.664 2 3 cbr 500 ------- 0 1.0 3.1 90 128
d 0.664 2 3 cbr 500 ------- 0 1.0 3.1 90 128
+ 0.665 1 2 cbr 500 ------- 0 1.0 3.1 93 131
- 0.665 1 2 cbr 500 ------- 0 1.0 3.1 93 131
r 0.66736 2 0 ack 40 ------- 1 3.0 0.0 12 127
+ 0.66736 0 2 tcp 1040 ------- 1 0.0 3.0 25 132
- 0.66736 0 2 tcp 1040 ------- 1 0.0 3.0 25 132
+ 0.66736 0 2 tcp 1040 ------- 1 0.0 3.0 26 133
- 0.6684 2 3 tcp 1040 ------- 1 0.0 3.0 13 56
r 0.669 1 2 cbr 500 ------- 0 1.0 3.1 91 129
+ 0.669 2 3 cbr 500 ------- 0 1.0 3.1 91 129
+ 0.67 1 2 cbr 500 ------- 0 1.0 3.1 94 134
- 0.67 1 2 cbr 500 ------- 0 1.0 3.1 94 134
r 0.6704 2 3 cbr 500 ------- 0 1.0 3.1 34 54
r 0.674 1 2 cbr 500 ------- 0 1.0 3.1 92 130
+ 0.674 2 3 cbr 500 ------- 0 1.0 3.1 92 130
d 0.674 2 3 cbr 500 ------- 0 1.0 3.1 92 130