+ 0.3 0 2 tcp 40 ------- 1 0.0 4.0 0 3
- 0.3 0 2 tcp 40 ------- 1 0.0 4.0 0 3
r 0.31016 0 2 tcp 40 ------- 1 0.0 4.0 0 3
+ 0.31016 2 3 tcp 40 ------- 1 0.0 4.0 0 3
- 0.31016 2 3 tcp 40 ------- 1 0.0 4.0 0 3
r 0.411227 2 3 tcp 40 ------- 1 0.0 4.0 0 3
h 0.411227 3 6 tcp 40 ------- 1 0.0 4.0 0 3
+ 0.451227 3 6 tcp 40 ------- 1 0.0 4.0 0 3
- 0.451227 3 6 tcp 40 ------- 1 0.0 4.0 0 3
d 0.451231 5 6 tcp 40 ------- 1 0.0 4.0 0 3
r 0.491231 6 4 tcp 40 ------- 1 0.0 4.0 0 3
h 0.491231 4 6 ack 40 ------- 1 4.0 0.0 0 10
+ 0.531231 4 6 ack 40 ------- 1 4.0 0.0 0 10
- 0.531231 4 6 ack 40 ------- 1 4.0 0.0 0 10
d 0.531235 5 6 ack 40 ------- 1 4.0 0.0 0 10
r 0.571235 6 3 ack 40 ------- 1 4.0 0.0 0 10
+ 0.571235 3 2 ack 40 ------- 1 4.0 0.0 0 10
- 0.571235 3 2 ack 40 ------- 1 4.0 0.0 0 10
r 0.672301 3 2 ack 40 ------- 1 4.0 0.0 0 10
+ 0.672301 2 0 ack 40 ------- 1 4.0 0.0 0 10
- 0.672301 2 0 ack 40 ------- 1 4.0 0.0 0 10
r 0.682461 2 0 ack 40 ------- 1 4.0 0.0 0 10
+ 0.682461 0 2 tcp 1040 ------- 1 0.0 4.0 1 17
- 0.682461 0 2 tcp 1040 ------- 1 0.0 4.0 1 17
+ 0.682461 0 2 tcp 1040 ------- 1 0.0 4.0 2 18
- 0.686621 0 2 tcp 1040 ------- 1 0.0 4.0 2 18
r 0.696621 0 2 tcp 1040 ------- 1 0.0 4.0 1 17
+ 0.696621 2 3 tcp 1040 ------- 1 0.0 4.0 1 17
- 0.696621 2 3 tcp 1040 ------- 1 0.0 4.0 1 17
r 0.700781 0 2 tcp 1040 ------- 1 0.0 4.0 2 18
+ 0.700781 2 3 tcp 1040 ------- 1 0.0 4.0 2 18
- 0.724355 2 3 tcp 1040 ------- 1 0.0 4.0 2 18
r 0.824355 2 3 tcp 1040 ------- 1 0.0 4.0 1 17
h 0.824355 3 6 tcp 1040 ------- 1 0.0 4.0 1 17
r 0.852088 2 3 tcp 1040 ------- 1 0.0 4.0 2 18
h 0.852088 3 6 tcp 1040 ------- 1 0.0 4.0 2 18
+ 0.864355 3 6 tcp 1040 ------- 1 0.0 4.0 1 17
- 0.864355 3 6 tcp 1040 ------- 1 0.0 4.0 1 17
d 0.864359 5 6 tcp 1040 ------- 1 0.0 4.0 1 17
+ 0.892088 3 6 tcp 1040 ------- 1 0.0 4.0 2 18
- 0.892088 3 6 tcp 1040 ------- 1 0.0 4.0 2 18
d 0.892092 5 6 tcp 1040 ------- 1 0.0 4.0 2 18
r 0.904359 6 4 tcp 1040 ------- 1 0.0 4.0 1 17
r 0.932092 6 4 tcp 1040 ------- 1 0.0 4.0 2 18
h 0.932092 4 6 ack 40 ------- 1 4.0 0.0 2 26
+ 0.972092 4 6 ack 40 ------- 1 4.0 0.0 2 26
- 0.972092 4 6 ack 40 ------- 1 4.0 0.0 2 26
d 0.972096 5 6 ack 40 ------- 1 4.0 0.0 2 26
r 1.012096 6 3 ack 40 ------- 1 4.0 0.0 2 26
+ 1.012096 3 2 ack 40 ------- 1 4.0 0.0 2 26
- 1.012096 3 2 ack 40 ------- 1 4.0 0.0 2 26
r 1.113163 3 2 ack 40 ------- 1 4.0 0.0 2 26
+ 1.113163 2 0 ack 40 ------- 1 4.0 0.0 2 26
- 1.113163 2 0 ack 40 ------- 1 4.0 0.0 2 26
r 1.123323 2 0 ack 40 ------- 1 4.0 0.0 2 26
+ 1.123323 0 2 tcp 1040 ------- 1 0.0 4.0 3 33
- 1.123323 0 2 tcp 1040 ------- 1 0.0 4.0 3 33
+ 1.123323 0 2 tcp 1040 ------- 1 0.0 4.0 4 34
+ 1.123323 0 2 tcp 1040 ------- 1 0.0 4.0 5 35
- 1.127483 0 2 tcp 1040 ------- 1 0.0 4.0 4 34
- 1.131643 0 2 tcp 1040 ------- 1 0.0 4.0 5 35
r 1.137483 0 2 tcp 1040 ------- 1 0.0 4.0 3 33
+ 1.137483 2 3 tcp 1040 ------- 1 0.0 4.0 3 33
- 1.137483 2 3 tcp 1040 ------- 1 0.0 4.0 3 33
r 1.141643 0 2 tcp 1040 ------- 1 0.0 4.0 4 34
+ 1.141643 2 3 tcp 1040 ------- 1 0.0 4.0 4 34
r 1.145803 0 2 tcp 1040 ------- 1 0.0 4.0 5 35
+ 1.145803 2 3 tcp 1040 ------- 1 0.0 4.0 5 35
- 1.165216 2 3 tcp 1040 ------- 1 0.0 4.0 4 34
- 1.192949 2 3 tcp 1040 ------- 1 0.0 4.0 5 35
r 1.265216 2 3 tcp 1040 ------- 1 0.0 4.0 3 33
h 1.265216 3 6 tcp 1040 ------- 1 0.0 4.0 3 33
r 1.292949 2 3 tcp 1040 ------- 1 0.0 4.0 4 34
h 1.292949 3 6 tcp 1040 ------- 1 0.0 4.0 4 34
+ 1.305216 3 6 tcp 1040 ------- 1 0.0 4.0 3 33
- 1.305216 3 6 tcp 1040 ------- 1 0.0 4.0 3 33
d 1.30522 5 6 tcp 1040 ------- 1 0.0 4.0 3 33
r 1.320683 2 3 tcp 1040 ------- 1 0.0 4.0 5 35
h 1.320683 3 6 tcp 1040 ------- 1 0.0 4.0 5 35
+ 1.332949 3 6 tcp 1040 ------- 1 0.0 4.0 4 34
- 1.332949 3 6 tcp 1040 ------- 1 0.0 4.0 4 34
d 1.332953 5 6 tcp 1040 ------- 1 0.0 4.0 4 34
r 1.34522 6 4 tcp 1040 ------- 1 0.0 4.0 3 33
+ 1.360683 3 6 tcp 1040 ------- 1 0.0 4.0 5 35
- 1.360683 3 6 tcp 1040 ------- 1 0.0 4.0 5 35
d 1.360687 5 6 tcp 1040 ------- 1 0.0 4.0 5 35
r 1.372953 6 4 tcp 1040 ------- 1 0.0 4.0 4 34
h 1.372953 4 6 ack 40 ------- 1 4.0 0.0 4 43
r 1.400687 6 4 tcp 1040 ------- 1 0.0 4.0 5 35
+ 1.412953 4 6 ack 40 ------- 1 4.0 0.0 4 43
- 1.412953 4 6 ack 40 ------- 1 4.0 0.0 4 43
d 1.412957 5 6 ack 40 ------- 1 4.0 0.0 4 43
r 1.452957 6 3 ack 40 ------- 1 4.0 0.0 4 43
+ 1.452957 3 2 ack 40 ------- 1 4.0 0.0 4 43
- 1.452957 3 2 ack 40 ------- 1 4.0 0.0 4 43
h 1.500687 4 6 ack 40 ------- 1 4.0 0.0 5 48
+ 1.540687 4 6 ack 40 ------- 1 4.0 0.0 5 48
- 1.540687 4 6 ack 40 ------- 1 4.0 0.0 5 48
d 1.540691 5 6 ack 40 ------- 1 4.0 0.0 5 48
r 1.554024 3 2 ack 40 ------- 1 4.0 0.0 4 43
+ 1.554024 2 0 ack 40 ------- 1 4.0 0.0 4 43
- 1.554024 2 0 ack 40 ------- 1 4.0 0.0 4 43
r 1.564184 2 0 ack 40 ------- 1 4.0 0.0 4 43
+ 1.564184 0 2 tcp 1040 ------- 1 0.0 4.0 6 51
- 1.564184 0 2 tcp 1040 ------- 1 0.0 4.0 6 51
+ 1.564184 0 2 tcp 1040 ------- 1 0.0 4.0 7 52
+ 1.564184 0 2 tcp 1040 ------- 1 0.0 4.0 8 53
- 1.568344 0 2 tcp 1040 ------- 1 0.0 4.0 7 52
- 1.572504 0 2 tcp 1040 ------- 1 0.0 4.0 8 53
r 1.578344 0 2 tcp 1040 ------- 1 0.0 4.0 6 51
+ 1.578344 2 3 tcp 1040 ------- 1 0.0 4.0 6 51
- 1.578344 2 3 tcp 1040 ------- 1 0.0 4.0 6 51
r 1.580691 6 3 ack 40 ------- 1 4.0 0.0 5 48
+ 1.580691 3 2 ack 40 ------- 1 4.0 0.0 5 48
- 1.580691 3 2 ack 40 ------- 1 4.0 0.0 5 48
r 1.582504 0 2 tcp 1040 ------- 1 0.0 4.0 7 52
+ 1.582504 2 3 tcp 1040 ------- 1 0.0 4.0 7 52
r 1.586664 0 2 tcp 1040 ------- 1 0.0 4.0 8 53
+ 1.586664 2 3 tcp 1040 ------- 1 0.0 4.0 8 53
- 1.606077 2 3 tcp 1040 ------- 1 0.0 4.0 7 52
- 1.633811 2 3 tcp 1040 ------- 1 0.0 4.0 8 53
r 1.681757 3 2 ack 40 ------- 1 4.0 0.0 5 48
+ 1.681757 2 0 ack 40 ------- 1 4.0 0.0 5 48
- 1.681757 2 0 ack 40 ------- 1 4.0 0.0 5 48
r 1.691917 2 0 ack 40 ------- 1 4.0 0.0 5 48
+ 1.691917 0 2 tcp 1040 ------- 1 0.0 4.0 9 58
- 1.691917 0 2 tcp 1040 ------- 1 0.0 4.0 9 58
+ 1.691917 0 2 tcp 1040 ------- 1 0.0 4.0 10 59
- 1.696077 0 2 tcp 1040 ------- 1 0.0 4.0 10 59
r 1.706077 2 3 tcp 1040 ------- 1 0.0 4.0 6 51
h 1.706077 3 6 tcp 1040 ------- 1 0.0 4.0 6 51
r 1.706077 0 2 tcp 1040 ------- 1 0.0 4.0 9 58
+ 1.706077 2 3 tcp 1040 ------- 1 0.0 4.0 9 58
- 1.706077 2 3 tcp 1040 ------- 1 0.0 4.0 9 58
r 1.710237 0 2 tcp 1040 ------- 1 0.0 4.0 10 59
+ 1.710237 2 3 tcp 1040 ------- 1 0.0 4.0 10 59
r 1.733811 2 3 tcp 1040 ------- 1 0.0 4.0 7 52
h 1.733811 3 6 tcp 1040 ------- 1 0.0 4.0 7 52
- 1.733811 2 3 tcp 1040 ------- 1 0.0 4.0 10 59
+ 1.746077 3 6 tcp 1040 ------- 1 0.0 4.0 6 51
- 1.746077 3 6 tcp 1040 ------- 1 0.0 4.0 6 51
d 1.746081 5 6 tcp 1040 ------- 1 0.0 4.0 6 51
r 1.761544 2 3 tcp 1040 ------- 1 0.0 4.0 8 53
h 1.761544 3 6 tcp 1040 ------- 1 0.0 4.0 8 53
+ 1.773811 3 6 tcp 1040 ------- 1 0.0 4.0 7 52
- 1.773811 3 6 tcp 1040 ------- 1 0.0 4.0 7 52
d 1.773815 5 6 tcp 1040 ------- 1 0.0 4.0 7 52
r 1.786081 6 4 tcp 1040 ------- 1 0.0 4.0 6 51
+ 1.801544 3 6 tcp 1040 ------- 1 0.0 4.0 8 53
- 1.801544 3 6 tcp 1040 ------- 1 0.0 4.0 8 53
d 1.801548 5 6 tcp 1040 ------- 1 0.0 4.0 8 53
r 1.813815 6 4 tcp 1040 ------- 1 0.0 4.0 7 52
h 1.813815 4 6 ack 40 ------- 1 4.0 0.0 7 64
r 1.833811 2 3 tcp 1040 ------- 1 0.0 4.0 9 58
h 1.833811 3 6 tcp 1040 ------- 1 0.0 4.0 9 58
r 1.841548 6 4 tcp 1040 ------- 1 0.0 4.0 8 53
+ 1.853815 4 6 ack 40 ------- 1 4.0 0.0 7 64
- 1.853815 4 6 ack 40 ------- 1 4.0 0.0 7 64
d 1.853819 5 6 ack 40 ------- 1 4.0 0.0 7 64
r 1.861544 2 3 tcp 1040 ------- 1 0.0 4.0 10 59
h 1.861544 3 6 tcp 1040 ------- 1 0.0 4.0 10 59
+ 1.873811 3 6 tcp 1040 ------- 1 0.0 4.0 9 58
- 1.873811 3 6 tcp 1040 ------- 1 0.0 4.0 9 58
d 1.873815 5 6 tcp 1040 ------- 1 0.0 4.0 9 58
r 1.893819 6 3 ack 40 ------- 1 4.0 0.0 7 64
+ 1.893819 3 2 ack 40 ------- 1 4.0 0.0 7 64
- 1.893819 3 2 ack 40 ------- 1 4.0 0.0 7 64
+ 1.901544 3 6 tcp 1040 ------- 1 0.0 4.0 10 59
- 1.901544 3 6 tcp 1040 ------- 1 0.0 4.0 10 59
d 1.901548 5 6 tcp 1040 ------- 1 0.0 4.0 10 59
r 1.913815 6 4 tcp 1040 ------- 1 0.0 4.0 9 58
h 1.913815 4 6 ack 40 ------- 1 4.0 0.0 9 68
r 1.941548 6 4 tcp 1040 ------- 1 0.0 4.0 10 59
+ 1.953815 4 6 ack 40 ------- 1 4.0 0.0 9 68
- 1.953815 4 6 ack 40 ------- 1 4.0 0.0 9 68
d 1.953819 5 6 ack 40 ------- 1 4.0 0.0 9 68
r 1.993819 6 3 ack 40 ------- 1 4.0 0.0 9 68
+ 1.993819 3 2 ack 40 ------- 1 4.0 0.0 9 68
- 1.993819 3 2 ack 40 ------- 1 4.0 0.0 9 68
r 1.994885 3 2 ack 40 ------- 1 4.0 0.0 7 64
+ 1.994885 2 0 ack 40 ------- 1 4.0 0.0 7 64
- 1.994885 2 0 ack 40 ------- 1 4.0 0.0 7 64
r 2.005045 2 0 ack 40 ------- 1 4.0 0.0 7 64
+ 2.005045 0 2 tcp 1040 ------- 1 0.0 4.0 11 71
- 2.005045 0 2 tcp 1040 ------- 1 0.0 4.0 11 71
+ 2.005045 0 2 tcp 1040 ------- 1 0.0 4.0 12 72
+ 2.005045 0 2 tcp 1040 ------- 1 0.0 4.0 13 73
- 2.009205 0 2 tcp 1040 ------- 1 0.0 4.0 12 72
- 2.013365 0 2 tcp 1040 ------- 1 0.0 4.0 13 73
r 2.019205 0 2 tcp 1040 ------- 1 0.0 4.0 11 71
+ 2.019205 2 3 tcp 1040 ------- 1 0.0 4.0 11 71
- 2.019205 2 3 tcp 1040 ------- 1 0.0 4.0 11 71
r 2.023365 0 2 tcp 1040 ------- 1 0.0 4.0 12 72
+ 2.023365 2 3 tcp 1040 ------- 1 0.0 4.0 12 72
r 2.027525 0 2 tcp 1040 ------- 1 0.0 4.0 13 73
+ 2.027525 2 3 tcp 1040 ------- 1 0.0 4.0 13 73
h 2.041548 4 6 ack 40 ------- 1 4.0 0.0 10 75
- 2.046939 2 3 tcp 1040 ------- 1 0.0 4.0 12 72
- 2.074672 2 3 tcp 1040 ------- 1 0.0 4.0 13 73
+ 2.081548 4 6 ack 40 ------- 1 4.0 0.0 10 75
- 2.081548 4 6 ack 40 ------- 1 4.0 0.0 10 75
d 2.081552 5 6 ack 40 ------- 1 4.0 0.0 10 75
r 2.094885 3 2 ack 40 ------- 1 4.0 0.0 9 68
+ 2.094885 2 0 ack 40 ------- 1 4.0 0.0 9 68
- 2.094885 2 0 ack 40 ------- 1 4.0 0.0 9 68
r 2.105045 2 0 ack 40 ------- 1 4.0 0.0 9 68
+ 2.105045 0 2 tcp 1040 ------- 1 0.0 4.0 14 78
- 2.105045 0 2 tcp 1040 ------- 1 0.0 4.0 14 78
+ 2.105045 0 2 tcp 1040 ------- 1 0.0 4.0 15 79
+ 2.105045 0 2 tcp 1040 ------- 1 0.0 4.0 16 80
- 2.109205 0 2 tcp 1040 ------- 1 0.0 4.0 15 79
- 2.113365 0 2 tcp 1040 ------- 1 0.0 4.0 16 80
r 2.119205 0 2 tcp 1040 ------- 1 0.0 4.0 14 78
+ 2.119205 2 3 tcp 1040 ------- 1 0.0 4.0 14 78
- 2.119205 2 3 tcp 1040 ------- 1 0.0 4.0 14 78
r 2.121552 6 3 ack 40 ------- 1 4.0 0.0 10 75
+ 2.121552 3 2 ack 40 ------- 1 4.0 0.0 10 75
- 2.121552 3 2 ack 40 ------- 1 4.0 0.0 10 75
r 2.123365 0 2 tcp 1040 ------- 1 0.0 4.0 15 79
+ 2.123365 2 3 tcp 1040 ------- 1 0.0 4.0 15 79
r 2.127525 0 2 tcp 1040 ------- 1 0.0 4.0 16 80
+ 2.127525 2 3 tcp 1040 ------- 1 0.0 4.0 16 80
r 2.146939 2 3 tcp 1040 ------- 1 0.0 4.0 11 71
h 2.146939 3 6 tcp 1040 ------- 1 0.0 4.0 11 71
- 2.146939 2 3 tcp 1040 ------- 1 0.0 4.0 15 79
r 2.174672 2 3 tcp 1040 ------- 1 0.0 4.0 12 72
h 2.174672 3 6 tcp 1040 ------- 1 0.0 4.0 12 72
- 2.174672 2 3 tcp 1040 ------- 1 0.0 4.0 16 80
+ 2.186939 3 6 tcp 1040 ------- 1 0.0 4.0 11 71
- 2.186939 3 6 tcp 1040 ------- 1 0.0 4.0 11 71
d 2.186943 5 6 tcp 1040 ------- 1 0.0 4.0 11 71
r 2.202405 2 3 tcp 1040 ------- 1 0.0 4.0 13 73
h 2.202405 3 6 tcp 1040 ------- 1 0.0 4.0 13 73
+ 2.214672 3 6 tcp 1040 ------- 1 0.0 4.0 12 72
- 2.214672 3 6 tcp 1040 ------- 1 0.0 4.0 12 72
d 2.214676 5 6 tcp 1040 ------- 1 0.0 4.0 12 72
r 2.222619 3 2 ack 40 ------- 1 4.0 0.0 10 75
+ 2.222619 2 0 ack 40 ------- 1 4.0 0.0 10 75
- 2.222619 2 0 ack 40 ------- 1 4.0 0.0 10 75
r 2.226943 6 4 tcp 1040 ------- 1 0.0 4.0 11 71
r 2.232779 2 0 ack 40 ------- 1 4.0 0.0 10 75
+ 2.232779 0 2 tcp 1040 ------- 1 0.0 4.0 17 85
- 2.232779 0 2 tcp 1040 ------- 1 0.0 4.0 17 85
+ 2.232779 0 2 tcp 1040 ------- 1 0.0 4.0 18 86
- 2.236939 0 2 tcp 1040 ------- 1 0.0 4.0 18 86
+ 2.242405 3 6 tcp 1040 ------- 1 0.0 4.0 13 73
- 2.242405 3 6 tcp 1040 ------- 1 0.0 4.0 13 73
d 2.242409 5 6 tcp 1040 ------- 1 0.0 4.0 13 73
r 2.246939 2 3 tcp 1040 ------- 1 0.0 4.0 14 78
h 2.246939 3 6 tcp 1040 ------- 1 0.0 4.0 14 78
r 2.246939 0 2 tcp 1040 ------- 1 0.0 4.0 17 85
+ 2.246939 2 3 tcp 1040 ------- 1 0.0 4.0 17 85
- 2.246939 2 3 tcp 1040 ------- 1 0.0 4.0 17 85
r 2.251099 0 2 tcp 1040 ------- 1 0.0 4.0 18 86
+ 2.251099 2 3 tcp 1040 ------- 1 0.0 4.0 18 86
r 2.254676 6 4 tcp 1040 ------- 1 0.0 4.0 12 72
h 2.254676 4 6 ack 40 ------- 1 4.0 0.0 12 88
r 2.274672 2 3 tcp 1040 ------- 1 0.0 4.0 15 79
h 2.274672 3 6 tcp 1040 ------- 1 0.0 4.0 15 79
- 2.274672 2 3 tcp 1040 ------- 1 0.0 4.0 18 86
r 2.282409 6 4 tcp 1040 ------- 1 0.0 4.0 13 73
+ 2.286939 3 6 tcp 1040 ------- 1 0.0 4.0 14 78
- 2.286939 3 6 tcp 1040 ------- 1 0.0 4.0 14 78
d 2.286943 5 6 tcp 1040 ------- 1 0.0 4.0 14 78
+ 2.294676 4 6 ack 40 ------- 1 4.0 0.0 12 88
- 2.294676 4 6 ack 40 ------- 1 4.0 0.0 12 88
d 2.29468 5 6 ack 40 ------- 1 4.0 0.0 12 88
r 2.302405 2 3 tcp 1040 ------- 1 0.0 4.0 16 80
h 2.302405 3 6 tcp 1040 ------- 1 0.0 4.0 16 80
+ 2.314672 3 6 tcp 1040 ------- 1 0.0 4.0 15 79
- 2.314672 3 6 tcp 1040 ------- 1 0.0 4.0 15 79
d 2.314676 5 6 tcp 1040 ------- 1 0.0 4.0 15 79
r 2.326943 6 4 tcp 1040 ------- 1 0.0 4.0 14 78
h 2.326943 4 6 ack 40 ------- 1 4.0 0.0 14 91
r 2.33468 6 3 ack 40 ------- 1 4.0 0.0 12 88
+ 2.33468 3 2 ack 40 ------- 1 4.0 0.0 12 88
- 2.33468 3 2 ack 40 ------- 1 4.0 0.0 12 88
+ 2.342405 3 6 tcp 1040 ------- 1 0.0 4.0 16 80
- 2.342405 3 6 tcp 1040 ------- 1 0.0 4.0 16 80
d 2.342409 5 6 tcp 1040 ------- 1 0.0 4.0 16 80
r 2.354676 6 4 tcp 1040 ------- 1 0.0 4.0 15 79
+ 2.366943 4 6 ack 40 ------- 1 4.0 0.0 14 91
- 2.366943 4 6 ack 40 ------- 1 4.0 0.0 14 91
d 2.366947 5 6 ack 40 ------- 1 4.0 0.0 14 91
r 2.374672 2 3 tcp 1040 ------- 1 0.0 4.0 17 85
h 2.374672 3 6 tcp 1040 ------- 1 0.0 4.0 17 85
r 2.382409 6 4 tcp 1040 ------- 1 0.0 4.0 16 80
h 2.382409 4 6 ack 40 ------- 1 4.0 0.0 16 93
r 2.402405 2 3 tcp 1040 ------- 1 0.0 4.0 18 86
h 2.402405 3 6 tcp 1040 ------- 1 0.0 4.0 18 86
r 2.406947 6 3 ack 40 ------- 1 4.0 0.0 14 91
+ 2.406947 3 2 ack 40 ------- 1 4.0 0.0 14 91
- 2.406947 3 2 ack 40 ------- 1 4.0 0.0 14 91
+ 2.414672 3 6 tcp 1040 ------- 1 0.0 4.0 17 85
- 2.414672 3 6 tcp 1040 ------- 1 0.0 4.0 17 85
d 2.414676 5 6 tcp 1040 ------- 1 0.0 4.0 17 85
+ 2.422409 4 6 ack 40 ------- 1 4.0 0.0 16 93
- 2.422409 4 6 ack 40 ------- 1 4.0 0.0 16 93
d 2.422413 5 6 ack 40 ------- 1 4.0 0.0 16 93
r 2.435747 3 2 ack 40 ------- 1 4.0 0.0 12 88
+ 2.435747 2 0 ack 40 ------- 1 4.0 0.0 12 88
- 2.435747 2 0 ack 40 ------- 1 4.0 0.0 12 88
+ 2.442405 3 6 tcp 1040 ------- 1 0.0 4.0 18 86
- 2.442405 3 6 tcp 1040 ------- 1 0.0 4.0 18 86
d 2.442409 5 6 tcp 1040 ------- 1 0.0 4.0 18 86
r 2.445907 2 0 ack 40 ------- 1 4.0 0.0 12 88
+ 2.445907 0 2 tcp 1040 ------- 1 0.0 4.0 19 96
- 2.445907 0 2 tcp 1040 ------- 1 0.0 4.0 19 96
+ 2.445907 0 2 tcp 1040 ------- 1 0.0 4.0 20 97
+ 2.445907 0 2 tcp 1040 ------- 1 0.0 4.0 21 98
- 2.450067 0 2 tcp 1040 ------- 1 0.0 4.0 20 97
- 2.454227 0 2 tcp 1040 ------- 1 0.0 4.0 21 98
r 2.454676 6 4 tcp 1040 ------- 1 0.0 4.0 17 85
r 2.460067 0 2 tcp 1040 ------- 1 0.0 4.0 19 96
+ 2.460067 2 3 tcp 1040 ------- 1 0.0 4.0 19 96
- 2.460067 2 3 tcp 1040 ------- 1 0.0 4.0 19 96
r 2.462413 6 3 ack 40 ------- 1 4.0 0.0 16 93
+ 2.462413 3 2 ack 40 ------- 1 4.0 0.0 16 93
- 2.462413 3 2 ack 40 ------- 1 4.0 0.0 16 93
r 2.464227 0 2 tcp 1040 ------- 1 0.0 4.0 20 97
+ 2.464227 2 3 tcp 1040 ------- 1 0.0 4.0 20 97
r 2.468387 0 2 tcp 1040 ------- 1 0.0 4.0 21 98
+ 2.468387 2 3 tcp 1040 ------- 1 0.0 4.0 21 98
r 2.482409 6 4 tcp 1040 ------- 1 0.0 4.0 18 86
h 2.482409 4 6 ack 40 ------- 1 4.0 0.0 18 100
- 2.4878 2 3 tcp 1040 ------- 1 0.0 4.0 20 97
r 2.508013 3 2 ack 40 ------- 1 4.0 0.0 14 91
+ 2.508013 2 0 ack 40 ------- 1 4.0 0.0 14 91
- 2.508013 2 0 ack 40 ------- 1 4.0 0.0 14 91
- 2.515533 2 3 tcp 1040 ------- 1 0.0 4.0 21 98
r 2.518173 2 0 ack 40 ------- 1 4.0 0.0 14 91
+ 2.518173 0 2 tcp 1040 ------- 1 0.0 4.0 22 102
- 2.518173 0 2 tcp 1040 ------- 1 0.0 4.0 22 102
+ 2.518173 0 2 tcp 1040 ------- 1 0.0 4.0 23 103
+ 2.518173 0 2 tcp 1040 ------- 1 0.0 4.0 24 104
- 2.522333 0 2 tcp 1040 ------- 1 0.0 4.0 23 103
+ 2.522409 4 6 ack 40 ------- 1 4.0 0.0 18 100
- 2.522409 4 6 ack 40 ------- 1 4.0 0.0 18 100
d 2.522413 5 6 ack 40 ------- 1 4.0 0.0 18 100
- 2.526493 0 2 tcp 1040 ------- 1 0.0 4.0 24 104
r 2.532333 0 2 tcp 1040 ------- 1 0.0 4.0 22 102
+ 2.532333 2 3 tcp 1040 ------- 1 0.0 4.0 22 102
r 2.536493 0 2 tcp 1040 ------- 1 0.0 4.0 23 103
+ 2.536493 2 3 tcp 1040 ------- 1 0.0 4.0 23 103
r 2.540653 0 2 tcp 1040 ------- 1 0.0 4.0 24 104
+ 2.540653 2 3 tcp 1040 ------- 1 0.0 4.0 24 104
- 2.543267 2 3 tcp 1040 ------- 1 0.0 4.0 22 102
r 2.562413 6 3 ack 40 ------- 1 4.0 0.0 18 100
+ 2.562413 3 2 ack 40 ------- 1 4.0 0.0 18 100
- 2.562413 3 2 ack 40 ------- 1 4.0 0.0 18 100
r 2.56348 3 2 ack 40 ------- 1 4.0 0.0 16 93
+ 2.56348 2 0 ack 40 ------- 1 4.0 0.0 16 93
- 2.56348 2 0 ack 40 ------- 1 4.0 0.0 16 93
- 2.571 2 3 tcp 1040 ------- 1 0.0 4.0 23 103
r 2.57364 2 0 ack 40 ------- 1 4.0 0.0 16 93
+ 2.57364 0 2 tcp 1040 ------- 1 0.0 4.0 25 107
- 2.57364 0 2 tcp 1040 ------- 1 0.0 4.0 25 107
+ 2.57364 0 2 tcp 1040 ------- 1 0.0 4.0 26 108
+ 2.57364 0 2 tcp 1040 ------- 1 0.0 4.0 27 109
- 2.5778 0 2 tcp 1040 ------- 1 0.0 4.0 26 108
- 2.58196 0 2 tcp 1040 ------- 1 0.0 4.0 27 109
r 2.5878 2 3 tcp 1040 ------- 1 0.0 4.0 19 96
h 2.5878 3 6 tcp 1040 ------- 1 0.0 4.0 19 96
r 2.5878 0 2 tcp 1040 ------- 1 0.0 4.0 25 107
+ 2.5878 2 3 tcp 1040 ------- 1 0.0 4.0 25 107
r 2.59196 0 2 tcp 1040 ------- 1 0.0 4.0 26 108
+ 2.59196 2 3 tcp 1040 ------- 1 0.0 4.0 26 108
r 2.59612 0 2 tcp 1040 ------- 1 0.0 4.0 27 109
+ 2.59612 2 3 tcp 1040 ------- 1 0.0 4.0 27 109
- 2.598733 2 3 tcp 1040 ------- 1 0.0 4.0 24 104
r 2.615533 2 3 tcp 1040 ------- 1 0.0 4.0 20 97
h 2.615533 3 6 tcp 1040 ------- 1 0.0 4.0 20 97
- 2.626467 2 3 tcp 1040 ------- 1 0.0 4.0 25 107
+ 2.6278 3 6 tcp 1040 ------- 1 0.0 4.0 19 96
- 2.6278 3 6 tcp 1040 ------- 1 0.0 4.0 19 96
d 2.627804 5 6 tcp 1040 ------- 1 0.0 4.0 19 96
r 2.643267 2 3 tcp 1040 ------- 1 0.0 4.0 21 98
h 2.643267 3 6 tcp 1040 ------- 1 0.0 4.0 21 98
- 2.6542 2 3 tcp 1040 ------- 1 0.0 4.0 26 108
+ 2.655533 3 6 tcp 1040 ------- 1 0.0 4.0 20 97
- 2.655533 3 6 tcp 1040 ------- 1 0.0 4.0 20 97
d 2.655537 5 6 tcp 1040 ------- 1 0.0 4.0 20 97
r 2.66348 3 2 ack 40 ------- 1 4.0 0.0 18 100
+ 2.66348 2 0 ack 40 ------- 1 4.0 0.0 18 100
- 2.66348 2 0 ack 40 ------- 1 4.0 0.0 18 100
r 2.667804 6 4 tcp 1040 ------- 1 0.0 4.0 19 96
r 2.671 2 3 tcp 1040 ------- 1 0.0 4.0 22 102
h 2.671 3 6 tcp 1040 ------- 1 0.0 4.0 22 102
r 2.67364 2 0 ack 40 ------- 1 4.0 0.0 18 100
+ 2.67364 0 2 tcp 1040 ------- 1 0.0 4.0 28 113
- 2.67364 0 2 tcp 1040 ------- 1 0.0 4.0 28 113
+ 2.67364 0 2 tcp 1040 ------- 1 0.0 4.0 29 114
+ 2.67364 0 2 tcp 1040 ------- 1 0.0 4.0 30 115
- 2.6778 0 2 tcp 1040 ------- 1 0.0 4.0 29 114
- 2.681933 2 3 tcp 1040 ------- 1 0.0 4.0 27 109
- 2.68196 0 2 tcp 1040 ------- 1 0.0 4.0 30 115
+ 2.683267 3 6 tcp 1040 ------- 1 0.0 4.0 21 98
- 2.683267 3 6 tcp 1040 ------- 1 0.0 4.0 21 98
d 2.683271 5 6 tcp 1040 ------- 1 0.0 4.0 21 98
r 2.6878 0 2 tcp 1040 ------- 1 0.0 4.0 28 113
+ 2.6878 2 3 tcp 1040 ------- 1 0.0 4.0 28 113
r 2.69196 0 2 tcp 1040 ------- 1 0.0 4.0 29 114
+ 2.69196 2 3 tcp 1040 ------- 1 0.0 4.0 29 114
r 2.695537 6 4 tcp 1040 ------- 1 0.0 4.0 20 97
h 2.695537 4 6 ack 40 ------- 1 4.0 0.0 20 117
r 2.69612 0 2 tcp 1040 ------- 1 0.0 4.0 30 115
+ 2.69612 2 3 tcp 1040 ------- 1 0.0 4.0 30 115
r 2.698733 2 3 tcp 1040 ------- 1 0.0 4.0 23 103
h 2.698733 3 6 tcp 1040 ------- 1 0.0 4.0 23 103
- 2.709667 2 3 tcp 1040 ------- 1 0.0 4.0 28 113
+ 2.711 3 6 tcp 1040 ------- 1 0.0 4.0 22 102
- 2.711 3 6 tcp 1040 ------- 1 0.0 4.0 22 102
d 2.711004 5 6 tcp 1040 ------- 1 0.0 4.0 22 102
r 2.723271 6 4 tcp 1040 ------- 1 0.0 4.0 21 98
r 2.726467 2 3 tcp 1040 ------- 1 0.0 4.0 24 104
h 2.726467 3 6 tcp 1040 ------- 1 0.0 4.0 24 104
+ 2.735537 4 6 ack 40 ------- 1 4.0 0.0 20 117
- 2.735537 4 6 ack 40 ------- 1 4.0 0.0 20 117
d 2.735541 5 6 ack 40 ------- 1 4.0 0.0 20 117
- 2.7374 2 3 tcp 1040 ------- 1 0.0 4.0 29 114
+ 2.738733 3 6 tcp 1040 ------- 1 0.0 4.0 23 103
- 2.738733 3 6 tcp 1040 ------- 1 0.0 4.0 23 103
d 2.738737 5 6 tcp 1040 ------- 1 0.0 4.0 23 103
r 2.751004 6 4 tcp 1040 ------- 1 0.0 4.0 22 102
h 2.751004 4 6 ack 40 ------- 1 4.0 0.0 22 119
r 2.7542 2 3 tcp 1040 ------- 1 0.0 4.0 25 107
h 2.7542 3 6 tcp 1040 ------- 1 0.0 4.0 25 107
- 2.765133 2 3 tcp 1040 ------- 1 0.0 4.0 30 115
+ 2.766467 3 6 tcp 1040 ------- 1 0.0 4.0 24 104
- 2.766467 3 6 tcp 1040 ------- 1 0.0 4.0 24 104
d 2.766471 5 6 tcp 1040 ------- 1 0.0 4.0 24 104
r 2.775541 6 3 ack 40 ------- 1 4.0 0.0 20 117
+ 2.775541 3 2 ack 40 ------- 1 4.0 0.0 20 117
- 2.775541 3 2 ack 40 ------- 1 4.0 0.0 20 117
r 2.778737 6 4 tcp 1040 ------- 1 0.0 4.0 23 103
r 2.781933 2 3 tcp 1040 ------- 1 0.0 4.0 26 108
h 2.781933 3 6 tcp 1040 ------- 1 0.0 4.0 26 108
+ 2.791004 4 6 ack 40 ------- 1 4.0 0.0 22 119
- 2.791004 4 6 ack 40 ------- 1 4.0 0.0 22 119
d 2.791008 5 6 ack 40 ------- 1 4.0 0.0 22 119
+ 2.7942 3 6 tcp 1040 ------- 1 0.0 4.0 25 107
- 2.7942 3 6 tcp 1040 ------- 1 0.0 4.0 25 107
d 2.794204 5 6 tcp 1040 ------- 1 0.0 4.0 25 107
r 2.806471 6 4 tcp 1040 ------- 1 0.0 4.0 24 104
h 2.806471 4 6 ack 40 ------- 1 4.0 0.0 24 122
r 2.809667 2 3 tcp 1040 ------- 1 0.0 4.0 27 109
h 2.809667 3 6 tcp 1040 ------- 1 0.0 4.0 27 109
+ 2.821933 3 6 tcp 1040 ------- 1 0.0 4.0 26 108
- 2.821933 3 6 tcp 1040 ------- 1 0.0 4.0 26 108
d 2.821937 5 6 tcp 1040 ------- 1 0.0 4.0 26 108
r 2.831008 6 3 ack 40 ------- 1 4.0 0.0 22 119
+ 2.831008 3 2 ack 40 ------- 1 4.0 0.0 22 119
- 2.831008 3 2 ack 40 ------- 1 4.0 0.0 22 119
r 2.834204 6 4 tcp 1040 ------- 1 0.0 4.0 25 107
r 2.8374 2 3 tcp 1040 ------- 1 0.0 4.0 28 113
h 2.8374 3 6 tcp 1040 ------- 1 0.0 4.0 28 113
+ 2.846471 4 6 ack 40 ------- 1 4.0 0.0 24 122
- 2.846471 4 6 ack 40 ------- 1 4.0 0.0 24 122
d 2.846475 5 6 ack 40 ------- 1 4.0 0.0 24 122
+ 2.849667 3 6 tcp 1040 ------- 1 0.0 4.0 27 109
- 2.849667 3 6 tcp 1040 ------- 1 0.0 4.0 27 109
d 2.849671 5 6 tcp 1040 ------- 1 0.0 4.0 27 109
r 2.861937 6 4 tcp 1040 ------- 1 0.0 4.0 26 108
h 2.861937 4 6 ack 40 ------- 1 4.0 0.0 26 125
r 2.865133 2 3 tcp 1040 ------- 1 0.0 4.0 29 114
h 2.865133 3 6 tcp 1040 ------- 1 0.0 4.0 29 114
r 2.876608 3 2 ack 40 ------- 1 4.0 0.0 20 117
+ 2.876608 2 0 ack 40 ------- 1 4.0 0.0 20 117
- 2.876608 2 0 ack 40 ------- 1 4.0 0.0 20 117
+ 2.8774 3 6 tcp 1040 ------- 1 0.0 4.0 28 113
- 2.8774 3 6 tcp 1040 ------- 1 0.0 4.0 28 113
d 2.877404 5 6 tcp 1040 ------- 1 0.0 4.0 28 113
r 2.886475 6 3 ack 40 ------- 1 4.0 0.0 24 122
+ 2.886475 3 2 ack 40 ------- 1 4.0 0.0 24 122
- 2.886475 3 2 ack 40 ------- 1 4.0 0.0 24 122
r 2.886768 2 0 ack 40 ------- 1 4.0 0.0 20 117
+ 2.886768 0 2 tcp 1040 ------- 1 0.0 4.0 31 126
- 2.886768 0 2 tcp 1040 ------- 1 0.0 4.0 31 126
+ 2.886768 0 2 tcp 1040 ------- 1 0.0 4.0 32 127
+ 2.886768 0 2 tcp 1040 ------- 1 0.0 4.0 33 128
r 2.889671 6 4 tcp 1040 ------- 1 0.0 4.0 27 109
- 2.890928 0 2 tcp 1040 ------- 1 0.0 4.0 32 127
r 2.892867 2 3 tcp 1040 ------- 1 0.0 4.0 30 115
h 2.892867 3 6 tcp 1040 ------- 1 0.0 4.0 30 115
- 2.895088 0 2 tcp 1040 ------- 1 0.0 4.0 33 128
r 2.900928 0 2 tcp 1040 ------- 1 0.0 4.0 31 126
+ 2.900928 2 3 tcp 1040 ------- 1 0.0 4.0 31 126
- 2.900928 2 3 tcp 1040 ------- 1 0.0 4.0 31 126
+ 2.901937 4 6 ack 40 ------- 1 4.0 0.0 26 125
- 2.901937 4 6 ack 40 ------- 1 4.0 0.0 26 125
d 2.901941 5 6 ack 40 ------- 1 4.0 0.0 26 125
r 2.905088 0 2 tcp 1040 ------- 1 0.0 4.0 32 127
+ 2.905088 2 3 tcp 1040 ------- 1 0.0 4.0 32 127
+ 2.905133 3 6 tcp 1040 ------- 1 0.0 4.0 29 114
- 2.905133 3 6 tcp 1040 ------- 1 0.0 4.0 29 114
d 2.905137 5 6 tcp 1040 ------- 1 0.0 4.0 29 114
r 2.909248 0 2 tcp 1040 ------- 1 0.0 4.0 33 128
+ 2.909248 2 3 tcp 1040 ------- 1 0.0 4.0 33 128
r 2.917404 6 4 tcp 1040 ------- 1 0.0 4.0 28 113
h 2.917404 4 6 ack 40 ------- 1 4.0 0.0 28 130
- 2.928661 2 3 tcp 1040 ------- 1 0.0 4.0 32 127
r 2.932075 3 2 ack 40 ------- 1 4.0 0.0 22 119
+ 2.932075 2 0 ack 40 ------- 1 4.0 0.0 22 119
- 2.932075 2 0 ack 40 ------- 1 4.0 0.0 22 119
+ 2.932867 3 6 tcp 1040 ------- 1 0.0 4.0 30 115
- 2.932867 3 6 tcp 1040 ------- 1 0.0 4.0 30 115
d 2.932871 5 6 tcp 1040 ------- 1 0.0 4.0 30 115
r 2.941941 6 3 ack 40 ------- 1 4.0 0.0 26 125
+ 2.941941 3 2 ack 40 ------- 1 4.0 0.0 26 125
- 2.941941 3 2 ack 40 ------- 1 4.0 0.0 26 125
r 2.942235 2 0 ack 40 ------- 1 4.0 0.0 22 119
+ 2.942235 0 2 tcp 1040 ------- 1 0.0 4.0 34 132
- 2.942235 0 2 tcp 1040 ------- 1 0.0 4.0 34 132
+ 2.942235 0 2 tcp 1040 ------- 1 0.0 4.0 35 133
+ 2.942235 0 2 tcp 1040 ------- 1 0.0 4.0 36 134
r 2.945137 6 4 tcp 1040 ------- 1 0.0 4.0 29 114
- 2.946395 0 2 tcp 1040 ------- 1 0.0 4.0 35 133
- 2.950555 0 2 tcp 1040 ------- 1 0.0 4.0 36 134
- 2.956395 2 3 tcp 1040 ------- 1 0.0 4.0 33 128
r 2.956395 0 2 tcp 1040 ------- 1 0.0 4.0 34 132
+ 2.956395 2 3 tcp 1040 ------- 1 0.0 4.0 34 132
+ 2.957404 4 6 ack 40 ------- 1 4.0 0.0 28 130
- 2.957404 4 6 ack 40 ------- 1 4.0 0.0 28 130
d 2.957408 5 6 ack 40 ------- 1 4.0 0.0 28 130
r 2.960555 0 2 tcp 1040 ------- 1 0.0 4.0 35 133
+ 2.960555 2 3 tcp 1040 ------- 1 0.0 4.0 35 133
r 2.964715 0 2 tcp 1040 ------- 1 0.0 4.0 36 134
+ 2.964715 2 3 tcp 1040 ------- 1 0.0 4.0 36 134
r 2.972871 6 4 tcp 1040 ------- 1 0.0 4.0 30 115
h 2.972871 4 6 ack 40 ------- 1 4.0 0.0 30 136
- 2.984128 2 3 tcp 1040 ------- 1 0.0 4.0 34 132
r 2.987541 3 2 ack 40 ------- 1 4.0 0.0 24 122
+ 2.987541 2 0 ack 40 ------- 1 4.0 0.0 24 122
- 2.987541 2 0 ack 40 ------- 1 4.0 0.0 24 122
r 2.997408 6 3 ack 40 ------- 1 4.0 0.0 28 130
+ 2.997408 3 2 ack 40 ------- 1 4.0 0.0 28 130
- 2.997408 3 2 ack 40 ------- 1 4.0 0.0 28 130
r 2.997701 2 0 ack 40 ------- 1 4.0 0.0 24 122
+ 2.997701 0 2 tcp 1040 ------- 1 0.0 4.0 37 138
- 2.997701 0 2 tcp 1040 ------- 1 0.0 4.0 37 138
+ 2.997701 0 2 tcp 1040 ------- 1 0.0 4.0 38 139
+ 2.997701 0 2 tcp 1040 ------- 1 0.0 4.0 39 140
- 3.001861 0 2 tcp 1040 ------- 1 0.0 4.0 38 139
- 3.006021 0 2 tcp 1040 ------- 1 0.0 4.0 39 140
- 3.011861 2 3 tcp 1040 ------- 1 0.0 4.0 35 133
r 3.011861 0 2 tcp 1040 ------- 1 0.0 4.0 37 138
+ 3.011861 2 3 tcp 1040 ------- 1 0.0 4.0 37 138
+ 3.012871 4 6 ack 40 ------- 1 4.0 0.0 30 136
- 3.012871 4 6 ack 40 ------- 1 4.0 0.0 30 136
d 3.012875 5 6 ack 40 ------- 1 4.0 0.0 30 136
r 3.016021 0 2 tcp 1040 ------- 1 0.0 4.0 38 139
+ 3.016021 2 3 tcp 1040 ------- 1 0.0 4.0 38 139
r 3.020181 0 2 tcp 1040 ------- 1 0.0 4.0 39 140
+ 3.020181 2 3 tcp 1040 ------- 1 0.0 4.0 39 140
r 3.028661 2 3 tcp 1040 ------- 1 0.0 4.0 31 126
h 3.028661 3 6 tcp 1040 ------- 1 0.0 4.0 31 126
- 3.039595 2 3 tcp 1040 ------- 1 0.0 4.0 36 134
r 3.043008 3 2 ack 40 ------- 1 4.0 0.0 26 125
+ 3.043008 2 0 ack 40 ------- 1 4.0 0.0 26 125
- 3.043008 2 0 ack 40 ------- 1 4.0 0.0 26 125
r 3.052875 6 3 ack 40 ------- 1 4.0 0.0 30 136
+ 3.052875 3 2 ack 40 ------- 1 4.0 0.0 30 136
- 3.052875 3 2 ack 40 ------- 1 4.0 0.0 30 136
r 3.053168 2 0 ack 40 ------- 1 4.0 0.0 26 125
+ 3.053168 0 2 tcp 1040 ------- 1 0.0 4.0 40 142
- 3.053168 0 2 tcp 1040 ------- 1 0.0 4.0 40 142
+ 3.053168 0 2 tcp 1040 ------- 1 0.0 4.0 41 143
+ 3.053168 0 2 tcp 1040 ------- 1 0.0 4.0 42 144
r 3.056395 2 3 tcp 1040 ------- 1 0.0 4.0 32 127
h 3.056395 3 6 tcp 1040 ------- 1 0.0 4.0 32 127
- 3.057328 0 2 tcp 1040 ------- 1 0.0 4.0 41 143
- 3.061488 0 2 tcp 1040 ------- 1 0.0 4.0 42 144
- 3.067328 2 3 tcp 1040 ------- 1 0.0 4.0 37 138
r 3.067328 0 2 tcp 1040 ------- 1 0.0 4.0 40 142
+ 3.067328 2 3 tcp 1040 ------- 1 0.0 4.0 40 142
+ 3.068661 3 6 tcp 1040 ------- 1 0.0 4.0 31 126
- 3.068661 3 6 tcp 1040 ------- 1 0.0 4.0 31 126
d 3.068665 5 6 tcp 1040 ------- 1 0.0 4.0 31 126
r 3.071488 0 2 tcp 1040 ------- 1 0.0 4.0 41 143
+ 3.071488 2 3 tcp 1040 ------- 1 0.0 4.0 41 143
r 3.075648 0 2 tcp 1040 ------- 1 0.0 4.0 42 144
+ 3.075648 2 3 tcp 1040 ------- 1 0.0 4.0 42 144
r 3.084128 2 3 tcp 1040 ------- 1 0.0 4.0 33 128
h 3.084128 3 6 tcp 1040 ------- 1 0.0 4.0 33 128
- 3.095061 2 3 tcp 1040 ------- 1 0.0 4.0 38 139
+ 3.096395 3 6 tcp 1040 ------- 1 0.0 4.0 32 127
- 3.096395 3 6 tcp 1040 ------- 1 0.0 4.0 32 127
d 3.096399 5 6 tcp 1040 ------- 1 0.0 4.0 32 127
r 3.098475 3 2 ack 40 ------- 1 4.0 0.0 28 130
+ 3.098475 2 0 ack 40 ------- 1 4.0 0.0 28 130
- 3.098475 2 0 ack 40 ------- 1 4.0 0.0 28 130
r 3.108635 2 0 ack 40 ------- 1 4.0 0.0 28 130
+ 3.108635 0 2 tcp 1040 ------- 1 0.0 4.0 43 147
- 3.108635 0 2 tcp 1040 ------- 1 0.0 4.0 43 147
+ 3.108635 0 2 tcp 1040 ------- 1 0.0 4.0 44 148
+ 3.108635 0 2 tcp 1040 ------- 1 0.0 4.0 45 149
r 3.108665 6 4 tcp 1040 ------- 1 0.0 4.0 31 126
r 3.111861 2 3 tcp 1040 ------- 1 0.0 4.0 34 132
h 3.111861 3 6 tcp 1040 ------- 1 0.0 4.0 34 132
- 3.112795 0 2 tcp 1040 ------- 1 0.0 4.0 44 148
- 3.116955 0 2 tcp 1040 ------- 1 0.0 4.0 45 149
- 3.122795 2 3 tcp 1040 ------- 1 0.0 4.0 39 140
r 3.122795 0 2 tcp 1040 ------- 1 0.0 4.0 43 147
+ 3.122795 2 3 tcp 1040 ------- 1 0.0 4.0 43 147
+ 3.124128 3 6 tcp 1040 ------- 1 0.0 4.0 33 128
- 3.124128 3 6 tcp 1040 ------- 1 0.0 4.0 33 128
d 3.124132 5 6 tcp 1040 ------- 1 0.0 4.0 33 128
r 3.126955 0 2 tcp 1040 ------- 1 0.0 4.0 44 148
+ 3.126955 2 3 tcp 1040 ------- 1 0.0 4.0 44 148
r 3.131115 0 2 tcp 1040 ------- 1 0.0 4.0 45 149
+ 3.131115 2 3 tcp 1040 ------- 1 0.0 4.0 45 149
r 3.136399 6 4 tcp 1040 ------- 1 0.0 4.0 32 127
h 3.136399 4 6 ack 40 ------- 1 4.0 0.0 32 151
r 3.139595 2 3 tcp 1040 ------- 1 0.0 4.0 35 133
h 3.139595 3 6 tcp 1040 ------- 1 0.0 4.0 35 133
- 3.150528 2 3 tcp 1040 ------- 1 0.0 4.0 40 142
+ 3.151861 3 6 tcp 1040 ------- 1 0.0 4.0 34 132
- 3.151861 3 6 tcp 1040 ------- 1 0.0 4.0 34 132
d 3.151865 5 6 tcp 1040 ------- 1 0.0 4.0 34 132
r 3.153941 3 2 ack 40 ------- 1 4.0 0.0 30 136
+ 3.153941 2 0 ack 40 ------- 1 4.0 0.0 30 136
- 3.153941 2 0 ack 40 ------- 1 4.0 0.0 30 136
r 3.164101 2 0 ack 40 ------- 1 4.0 0.0 30 136
+ 3.164101 0 2 tcp 1040 ------- 1 0.0 4.0 46 153
- 3.164101 0 2 tcp 1040 ------- 1 0.0 4.0 46 153
+ 3.164101 0 2 tcp 1040 ------- 1 0.0 4.0 47 154
+ 3.164101 0 2 tcp 1040 ------- 1 0.0 4.0 48 155
r 3.164132 6 4 tcp 1040 ------- 1 0.0 4.0 33 128
r 3.167328 2 3 tcp 1040 ------- 1 0.0 4.0 36 134
h 3.167328 3 6 tcp 1040 ------- 1 0.0 4.0 36 134
- 3.168261 0 2 tcp 1040 ------- 1 0.0 4.0 47 154
- 3.172421 0 2 tcp 1040 ------- 1 0.0 4.0 48 155
+ 3.176399 4 6 ack 40 ------- 1 4.0 0.0 32 151