+ 0.3 1 2 cbr 1000 ------- 2 1.0 5.0 0 0
- 0.3 1 2 cbr 1000 ------- 2 1.0 5.0 0 0
r 0.314 1 2 cbr 1000 ------- 2 1.0 5.0 0 0
+ 0.314 2 3 cbr 1000 ------- 2 1.0 5.0 0 0
- 0.314 2 3 cbr 1000 ------- 2 1.0 5.0 0 0
r 0.440667 2 3 cbr 1000 ------- 2 1.0 5.0 0 0
h 0.440667 3 6 cbr 1000 ------- 2 1.0 5.0 0 0
+ 0.46 1 2 cbr 1000 ------- 2 1.0 5.0 1 1
- 0.46 1 2 cbr 1000 ------- 2 1.0 5.0 1 1
r 0.474 1 2 cbr 1000 ------- 2 1.0 5.0 1 1
+ 0.474 2 3 cbr 1000 ------- 2 1.0 5.0 1 1
- 0.474 2 3 cbr 1000 ------- 2 1.0 5.0 1 1
+ 0.480667 3 6 cbr 1000 ------- 2 1.0 5.0 0 0
- 0.480667 3 6 cbr 1000 ------- 2 1.0 5.0 0 0
d 0.480671 4 6 cbr 1000 ------- 2 1.0 5.0 0 0
r 0.520671 6 5 cbr 1000 ------- 2 1.0 5.0 0 0
r 0.600667 2 3 cbr 1000 ------- 2 1.0 5.0 1 1
h 0.600667 3 6 cbr 1000 ------- 2 1.0 5.0 1 1
+ 0.62 1 2 cbr 1000 ------- 2 1.0 5.0 2 2
- 0.62 1 2 cbr 1000 ------- 2 1.0 5.0 2 2
r 0.634 1 2 cbr 1000 ------- 2 1.0 5.0 2 2
+ 0.634 2 3 cbr 1000 ------- 2 1.0 5.0 2 2
- 0.634 2 3 cbr 1000 ------- 2 1.0 5.0 2 2
+ 0.640667 3 6 cbr 1000 ------- 2 1.0 5.0 1 1
- 0.640667 3 6 cbr 1000 ------- 2 1.0 5.0 1 1
d 0.640671 4 6 cbr 1000 ------- 2 1.0 5.0 1 1
r 0.680671 6 5 cbr 1000 ------- 2 1.0 5.0 1 1
r 0.760667 2 3 cbr 1000 ------- 2 1.0 5.0 2 2
h 0.760667 3 6 cbr 1000 ------- 2 1.0 5.0 2 2
+ 0.78 1 2 cbr 1000 ------- 2 1.0 5.0 3 3
- 0.78 1 2 cbr 1000 ------- 2 1.0 5.0 3 3
r 0.794 1 2 cbr 1000 ------- 2 1.0 5.0 3 3
+ 0.794 2 3 cbr 1000 ------- 2 1.0 5.0 3 3
- 0.794 2 3 cbr 1000 ------- 2 1.0 5.0 3 3
+ 0.8 0 2 tcp 40 ------- 1 0.0 4.0 0 4
- 0.8 0 2 tcp 40 ------- 1 0.0 4.0 0 4
+ 0.800667 3 6 cbr 1000 ------- 2 1.0 5.0 2 2
- 0.800667 3 6 cbr 1000 ------- 2 1.0 5.0 2 2
d 0.800671 4 6 cbr 1000 ------- 2 1.0 5.0 2 2
r 0.81016 0 2 tcp 40 ------- 1 0.0 4.0 0 4
+ 0.81016 2 3 tcp 40 ------- 1 0.0 4.0 0 4
- 0.820667 2 3 tcp 40 ------- 1 0.0 4.0 0 4
r 0.840671 6 5 cbr 1000 ------- 2 1.0 5.0 2 2
r 0.920667 2 3 cbr 1000 ------- 2 1.0 5.0 3 3
h 0.920667 3 6 cbr 1000 ------- 2 1.0 5.0 3 3
r 0.921733 2 3 tcp 40 ------- 1 0.0 4.0 0 4
h 0.921733 3 6 tcp 40 ------- 1 0.0 4.0 0 4
+ 0.94 1 2 cbr 1000 ------- 2 1.0 5.0 4 5
- 0.94 1 2 cbr 1000 ------- 2 1.0 5.0 4 5
r 0.954 1 2 cbr 1000 ------- 2 1.0 5.0 4 5
+ 0.954 2 3 cbr 1000 ------- 2 1.0 5.0 4 5
- 0.954 2 3 cbr 1000 ------- 2 1.0 5.0 4 5
+ 0.960667 3 6 cbr 1000 ------- 2 1.0 5.0 3 3
- 0.960667 3 6 cbr 1000 ------- 2 1.0 5.0 3 3
d 0.960671 4 6 cbr 1000 ------- 2 1.0 5.0 3 3
+ 0.961733 3 6 tcp 40 ------- 1 0.0 4.0 0 4
- 0.964923 3 6 tcp 40 ------- 1 0.0 4.0 0 4
d 0.964927 5 6 tcp 40 ------- 1 0.0 4.0 0 4
r 1.000671 6 5 cbr 1000 ------- 2 1.0 5.0 3 3
r 1.004927 6 4 tcp 40 ------- 1 0.0 4.0 0 4
h 1.004927 4 6 ack 40 ------- 1 4.0 0.0 0 6
+ 1.044927 4 6 ack 40 ------- 1 4.0 0.0 0 6
- 1.044927 4 6 ack 40 ------- 1 4.0 0.0 0 6
d 1.044931 5 6 ack 40 ------- 1 4.0 0.0 0 6
r 1.080667 2 3 cbr 1000 ------- 2 1.0 5.0 4 5
h 1.080667 3 6 cbr 1000 ------- 2 1.0 5.0 4 5
r 1.084931 6 3 ack 40 ------- 1 4.0 0.0 0 6
+ 1.084931 3 2 ack 40 ------- 1 4.0 0.0 0 6
- 1.084931 3 2 ack 40 ------- 1 4.0 0.0 0 6
+ 1.1 1 2 cbr 1000 ------- 2 1.0 5.0 5 7
- 1.1 1 2 cbr 1000 ------- 2 1.0 5.0 5 7
r 1.114 1 2 cbr 1000 ------- 2 1.0 5.0 5 7
+ 1.114 2 3 cbr 1000 ------- 2 1.0 5.0 5 7
- 1.114 2 3 cbr 1000 ------- 2 1.0 5.0 5 7
+ 1.120667 3 6 cbr 1000 ------- 2 1.0 5.0 4 5
- 1.120667 3 6 cbr 1000 ------- 2 1.0 5.0 4 5
d 1.120671 4 6 cbr 1000 ------- 2 1.0 5.0 4 5
r 1.160671 6 5 cbr 1000 ------- 2 1.0 5.0 4 5
r 1.185997 3 2 ack 40 ------- 1 4.0 0.0 0 6
+ 1.185997 2 0 ack 40 ------- 1 4.0 0.0 0 6
- 1.185997 2 0 ack 40 ------- 1 4.0 0.0 0 6
r 1.196157 2 0 ack 40 ------- 1 4.0 0.0 0 6
+ 1.196157 0 2 tcp 1040 ------- 1 0.0 4.0 1 8
- 1.196157 0 2 tcp 1040 ------- 1 0.0 4.0 1 8
+ 1.196157 0 2 tcp 1040 ------- 1 0.0 4.0 2 9
- 1.200317 0 2 tcp 1040 ------- 1 0.0 4.0 2 9
r 1.210317 0 2 tcp 1040 ------- 1 0.0 4.0 1 8
+ 1.210317 2 3 tcp 1040 ------- 1 0.0 4.0 1 8
- 1.210317 2 3 tcp 1040 ------- 1 0.0 4.0 1 8
r 1.214477 0 2 tcp 1040 ------- 1 0.0 4.0 2 9
+ 1.214477 2 3 tcp 1040 ------- 1 0.0 4.0 2 9
- 1.238051 2 3 tcp 1040 ------- 1 0.0 4.0 2 9
r 1.240667 2 3 cbr 1000 ------- 2 1.0 5.0 5 7
h 1.240667 3 6 cbr 1000 ------- 2 1.0 5.0 5 7
+ 1.26 1 2 cbr 1000 ------- 2 1.0 5.0 6 10
- 1.26 1 2 cbr 1000 ------- 2 1.0 5.0 6 10
r 1.274 1 2 cbr 1000 ------- 2 1.0 5.0 6 10
+ 1.274 2 3 cbr 1000 ------- 2 1.0 5.0 6 10
- 1.274 2 3 cbr 1000 ------- 2 1.0 5.0 6 10
+ 1.280667 3 6 cbr 1000 ------- 2 1.0 5.0 5 7
- 1.280667 3 6 cbr 1000 ------- 2 1.0 5.0 5 7
d 1.280671 4 6 cbr 1000 ------- 2 1.0 5.0 5 7
r 1.320671 6 5 cbr 1000 ------- 2 1.0 5.0 5 7
r 1.338051 2 3 tcp 1040 ------- 1 0.0 4.0 1 8
h 1.338051 3 6 tcp 1040 ------- 1 0.0 4.0 1 8
r 1.365784 2 3 tcp 1040 ------- 1 0.0 4.0 2 9
h 1.365784 3 6 tcp 1040 ------- 1 0.0 4.0 2 9
+ 1.378051 3 6 tcp 1040 ------- 1 0.0 4.0 1 8
- 1.378051 3 6 tcp 1040 ------- 1 0.0 4.0 1 8
d 1.378055 5 6 tcp 1040 ------- 1 0.0 4.0 1 8
r 1.400667 2 3 cbr 1000 ------- 2 1.0 5.0 6 10
h 1.400667 3 6 cbr 1000 ------- 2 1.0 5.0 6 10
+ 1.405784 3 6 tcp 1040 ------- 1 0.0 4.0 2 9
- 1.405784 3 6 tcp 1040 ------- 1 0.0 4.0 2 9
d 1.405788 5 6 tcp 1040 ------- 1 0.0 4.0 2 9
r 1.418055 6 4 tcp 1040 ------- 1 0.0 4.0 1 8
+ 1.42 1 2 cbr 1000 ------- 2 1.0 5.0 7 11
- 1.42 1 2 cbr 1000 ------- 2 1.0 5.0 7 11
r 1.434 1 2 cbr 1000 ------- 2 1.0 5.0 7 11
+ 1.434 2 3 cbr 1000 ------- 2 1.0 5.0 7 11
- 1.434 2 3 cbr 1000 ------- 2 1.0 5.0 7 11
+ 1.440667 3 6 cbr 1000 ------- 2 1.0 5.0 6 10
- 1.440667 3 6 cbr 1000 ------- 2 1.0 5.0 6 10
d 1.440671 4 6 cbr 1000 ------- 2 1.0 5.0 6 10
r 1.445788 6 4 tcp 1040 ------- 1 0.0 4.0 2 9
h 1.445788 4 6 ack 40 ------- 1 4.0 0.0 2 12
r 1.480671 6 5 cbr 1000 ------- 2 1.0 5.0 6 10
+ 1.485788 4 6 ack 40 ------- 1 4.0 0.0 2 12
- 1.485788 4 6 ack 40 ------- 1 4.0 0.0 2 12
d 1.485792 5 6 ack 40 ------- 1 4.0 0.0 2 12
r 1.525792 6 3 ack 40 ------- 1 4.0 0.0 2 12
+ 1.525792 3 2 ack 40 ------- 1 4.0 0.0 2 12
- 1.525792 3 2 ack 40 ------- 1 4.0 0.0 2 12
r 1.560667 2 3 cbr 1000 ------- 2 1.0 5.0 7 11
h 1.560667 3 6 cbr 1000 ------- 2 1.0 5.0 7 11
+ 1.58 1 2 cbr 1000 ------- 2 1.0 5.0 8 13
- 1.58 1 2 cbr 1000 ------- 2 1.0 5.0 8 13
r 1.594 1 2 cbr 1000 ------- 2 1.0 5.0 8 13
+ 1.594 2 3 cbr 1000 ------- 2 1.0 5.0 8 13
- 1.594 2 3 cbr 1000 ------- 2 1.0 5.0 8 13
+ 1.600667 3 6 cbr 1000 ------- 2 1.0 5.0 7 11
- 1.600667 3 6 cbr 1000 ------- 2 1.0 5.0 7 11
d 1.600671 4 6 cbr 1000 ------- 2 1.0 5.0 7 11
r 1.626859 3 2 ack 40 ------- 1 4.0 0.0 2 12
+ 1.626859 2 0 ack 40 ------- 1 4.0 0.0 2 12
- 1.626859 2 0 ack 40 ------- 1 4.0 0.0 2 12
r 1.637019 2 0 ack 40 ------- 1 4.0 0.0 2 12
+ 1.637019 0 2 tcp 1040 ------- 1 0.0 4.0 3 14
- 1.637019 0 2 tcp 1040 ------- 1 0.0 4.0 3 14
+ 1.637019 0 2 tcp 1040 ------- 1 0.0 4.0 4 15
+ 1.637019 0 2 tcp 1040 ------- 1 0.0 4.0 5 16
r 1.640671 6 5 cbr 1000 ------- 2 1.0 5.0 7 11
- 1.641179 0 2 tcp 1040 ------- 1 0.0 4.0 4 15
- 1.645339 0 2 tcp 1040 ------- 1 0.0 4.0 5 16
r 1.651179 0 2 tcp 1040 ------- 1 0.0 4.0 3 14
+ 1.651179 2 3 tcp 1040 ------- 1 0.0 4.0 3 14
- 1.651179 2 3 tcp 1040 ------- 1 0.0 4.0 3 14
r 1.655339 0 2 tcp 1040 ------- 1 0.0 4.0 4 15
+ 1.655339 2 3 tcp 1040 ------- 1 0.0 4.0 4 15
r 1.659499 0 2 tcp 1040 ------- 1 0.0 4.0 5 16
+ 1.659499 2 3 tcp 1040 ------- 1 0.0 4.0 5 16
- 1.678912 2 3 tcp 1040 ------- 1 0.0 4.0 4 15
- 1.706645 2 3 tcp 1040 ------- 1 0.0 4.0 5 16
r 1.720667 2 3 cbr 1000 ------- 2 1.0 5.0 8 13
h 1.720667 3 6 cbr 1000 ------- 2 1.0 5.0 8 13
+ 1.74 1 2 cbr 1000 ------- 2 1.0 5.0 9 17
- 1.74 1 2 cbr 1000 ------- 2 1.0 5.0 9 17
r 1.754 1 2 cbr 1000 ------- 2 1.0 5.0 9 17
+ 1.754 2 3 cbr 1000 ------- 2 1.0 5.0 9 17
- 1.754 2 3 cbr 1000 ------- 2 1.0 5.0 9 17
+ 1.760667 3 6 cbr 1000 ------- 2 1.0 5.0 8 13
- 1.760667 3 6 cbr 1000 ------- 2 1.0 5.0 8 13
d 1.760671 4 6 cbr 1000 ------- 2 1.0 5.0 8 13
r 1.778912 2 3 tcp 1040 ------- 1 0.0 4.0 3 14
h 1.778912 3 6 tcp 1040 ------- 1 0.0 4.0 3 14
r 1.800671 6 5 cbr 1000 ------- 2 1.0 5.0 8 13
r 1.806645 2 3 tcp 1040 ------- 1 0.0 4.0 4 15
h 1.806645 3 6 tcp 1040 ------- 1 0.0 4.0 4 15
+ 1.818912 3 6 tcp 1040 ------- 1 0.0 4.0 3 14
- 1.818912 3 6 tcp 1040 ------- 1 0.0 4.0 3 14
d 1.818916 5 6 tcp 1040 ------- 1 0.0 4.0 3 14
r 1.834379 2 3 tcp 1040 ------- 1 0.0 4.0 5 16
h 1.834379 3 6 tcp 1040 ------- 1 0.0 4.0 5 16
+ 1.846645 3 6 tcp 1040 ------- 1 0.0 4.0 4 15
- 1.846645 3 6 tcp 1040 ------- 1 0.0 4.0 4 15
d 1.846649 5 6 tcp 1040 ------- 1 0.0 4.0 4 15
r 1.858916 6 4 tcp 1040 ------- 1 0.0 4.0 3 14
+ 1.874379 3 6 tcp 1040 ------- 1 0.0 4.0 5 16
- 1.874379 3 6 tcp 1040 ------- 1 0.0 4.0 5 16
d 1.874383 5 6 tcp 1040 ------- 1 0.0 4.0 5 16
r 1.880667 2 3 cbr 1000 ------- 2 1.0 5.0 9 17
h 1.880667 3 6 cbr 1000 ------- 2 1.0 5.0 9 17
r 1.886649 6 4 tcp 1040 ------- 1 0.0 4.0 4 15
h 1.886649 4 6 ack 40 ------- 1 4.0 0.0 4 18
+ 1.9 1 2 cbr 1000 ------- 2 1.0 5.0 10 19
- 1.9 1 2 cbr 1000 ------- 2 1.0 5.0 10 19
r 1.914 1 2 cbr 1000 ------- 2 1.0 5.0 10 19
+ 1.914 2 3 cbr 1000 ------- 2 1.0 5.0 10 19
- 1.914 2 3 cbr 1000 ------- 2 1.0 5.0 10 19
r 1.914383 6 4 tcp 1040 ------- 1 0.0 4.0 5 16
+ 1.920667 3 6 cbr 1000 ------- 2 1.0 5.0 9 17
- 1.920667 3 6 cbr 1000 ------- 2 1.0 5.0 9 17
d 1.920671 4 6 cbr 1000 ------- 2 1.0 5.0 9 17
+ 1.926649 4 6 ack 40 ------- 1 4.0 0.0 4 18
- 1.926649 4 6 ack 40 ------- 1 4.0 0.0 4 18
d 1.926653 5 6 ack 40 ------- 1 4.0 0.0 4 18
r 1.960671 6 5 cbr 1000 ------- 2 1.0 5.0 9 17
r 1.966653 6 3 ack 40 ------- 1 4.0 0.0 4 18
+ 1.966653 3 2 ack 40 ------- 1 4.0 0.0 4 18
- 1.966653 3 2 ack 40 ------- 1 4.0 0.0 4 18
h 2.014383 4 6 ack 40 ------- 1 4.0 0.0 5 20
r 2.040667 2 3 cbr 1000 ------- 2 1.0 5.0 10 19
h 2.040667 3 6 cbr 1000 ------- 2 1.0 5.0 10 19
+ 2.054383 4 6 ack 40 ------- 1 4.0 0.0 5 20
- 2.054383 4 6 ack 40 ------- 1 4.0 0.0 5 20
d 2.054387 5 6 ack 40 ------- 1 4.0 0.0 5 20
+ 2.06 1 2 cbr 1000 ------- 2 1.0 5.0 11 21
- 2.06 1 2 cbr 1000 ------- 2 1.0 5.0 11 21
r 2.06772 3 2 ack 40 ------- 1 4.0 0.0 4 18
+ 2.06772 2 0 ack 40 ------- 1 4.0 0.0 4 18
- 2.06772 2 0 ack 40 ------- 1 4.0 0.0 4 18
r 2.074 1 2 cbr 1000 ------- 2 1.0 5.0 11 21
+ 2.074 2 3 cbr 1000 ------- 2 1.0 5.0 11 21
- 2.074 2 3 cbr 1000 ------- 2 1.0 5.0 11 21
r 2.07788 2 0 ack 40 ------- 1 4.0 0.0 4 18
+ 2.07788 0 2 tcp 1040 ------- 1 0.0 4.0 6 22
- 2.07788 0 2 tcp 1040 ------- 1 0.0 4.0 6 22
+ 2.07788 0 2 tcp 1040 ------- 1 0.0 4.0 7 23
+ 2.07788 0 2 tcp 1040 ------- 1 0.0 4.0 8 24
+ 2.080667 3 6 cbr 1000 ------- 2 1.0 5.0 10 19
- 2.080667 3 6 cbr 1000 ------- 2 1.0 5.0 10 19
d 2.080671 4 6 cbr 1000 ------- 2 1.0 5.0 10 19
- 2.08204 0 2 tcp 1040 ------- 1 0.0 4.0 7 23
- 2.0862 0 2 tcp 1040 ------- 1 0.0 4.0 8 24
r 2.09204 0 2 tcp 1040 ------- 1 0.0 4.0 6 22
+ 2.09204 2 3 tcp 1040 ------- 1 0.0 4.0 6 22
r 2.094387 6 3 ack 40 ------- 1 4.0 0.0 5 20
+ 2.094387 3 2 ack 40 ------- 1 4.0 0.0 5 20
- 2.094387 3 2 ack 40 ------- 1 4.0 0.0 5 20
r 2.0962 0 2 tcp 1040 ------- 1 0.0 4.0 7 23
+ 2.0962 2 3 tcp 1040 ------- 1 0.0 4.0 7 23
r 2.10036 0 2 tcp 1040 ------- 1 0.0 4.0 8 24
+ 2.10036 2 3 tcp 1040 ------- 1 0.0 4.0 8 24
- 2.100667 2 3 tcp 1040 ------- 1 0.0 4.0 6 22
r 2.120671 6 5 cbr 1000 ------- 2 1.0 5.0 10 19
- 2.1284 2 3 tcp 1040 ------- 1 0.0 4.0 7 23
- 2.156133 2 3 tcp 1040 ------- 1 0.0 4.0 8 24
r 2.195453 3 2 ack 40 ------- 1 4.0 0.0 5 20
+ 2.195453 2 0 ack 40 ------- 1 4.0 0.0 5 20
- 2.195453 2 0 ack 40 ------- 1 4.0 0.0 5 20
r 2.200667 2 3 cbr 1000 ------- 2 1.0 5.0 11 21
h 2.200667 3 6 cbr 1000 ------- 2 1.0 5.0 11 21
r 2.205613 2 0 ack 40 ------- 1 4.0 0.0 5 20
+ 2.205613 0 2 tcp 1040 ------- 1 0.0 4.0 9 25
- 2.205613 0 2 tcp 1040 ------- 1 0.0 4.0 9 25
+ 2.205613 0 2 tcp 1040 ------- 1 0.0 4.0 10 26
- 2.209773 0 2 tcp 1040 ------- 1 0.0 4.0 10 26
r 2.219773 0 2 tcp 1040 ------- 1 0.0 4.0 9 25
+ 2.219773 2 3 tcp 1040 ------- 1 0.0 4.0 9 25
- 2.219773 2 3 tcp 1040 ------- 1 0.0 4.0 9 25
+ 2.22 1 2 cbr 1000 ------- 2 1.0 5.0 12 27
- 2.22 1 2 cbr 1000 ------- 2 1.0 5.0 12 27
r 2.223933 0 2 tcp 1040 ------- 1 0.0 4.0 10 26
+ 2.223933 2 3 tcp 1040 ------- 1 0.0 4.0 10 26
r 2.2284 2 3 tcp 1040 ------- 1 0.0 4.0 6 22
h 2.2284 3 6 tcp 1040 ------- 1 0.0 4.0 6 22
r 2.234 1 2 cbr 1000 ------- 2 1.0 5.0 12 27
+ 2.234 2 3 cbr 1000 ------- 2 1.0 5.0 12 27
+ 2.240667 3 6 cbr 1000 ------- 2 1.0 5.0 11 21
- 2.240667 3 6 cbr 1000 ------- 2 1.0 5.0 11 21
d 2.240671 4 6 cbr 1000 ------- 2 1.0 5.0 11 21
- 2.247507 2 3 tcp 1040 ------- 1 0.0 4.0 10 26
r 2.256133 2 3 tcp 1040 ------- 1 0.0 4.0 7 23
h 2.256133 3 6 tcp 1040 ------- 1 0.0 4.0 7 23
+ 2.2684 3 6 tcp 1040 ------- 1 0.0 4.0 6 22
- 2.2684 3 6 tcp 1040 ------- 1 0.0 4.0 6 22
d 2.268404 5 6 tcp 1040 ------- 1 0.0 4.0 6 22
- 2.27524 2 3 cbr 1000 ------- 2 1.0 5.0 12 27
r 2.280671 6 5 cbr 1000 ------- 2 1.0 5.0 11 21
r 2.283867 2 3 tcp 1040 ------- 1 0.0 4.0 8 24
h 2.283867 3 6 tcp 1040 ------- 1 0.0 4.0 8 24
+ 2.296133 3 6 tcp 1040 ------- 1 0.0 4.0 7 23
- 2.296133 3 6 tcp 1040 ------- 1 0.0 4.0 7 23
d 2.296137 5 6 tcp 1040 ------- 1 0.0 4.0 7 23
r 2.308404 6 4 tcp 1040 ------- 1 0.0 4.0 6 22
+ 2.323867 3 6 tcp 1040 ------- 1 0.0 4.0 8 24
- 2.323867 3 6 tcp 1040 ------- 1 0.0 4.0 8 24
d 2.323871 5 6 tcp 1040 ------- 1 0.0 4.0 8 24
r 2.336137 6 4 tcp 1040 ------- 1 0.0 4.0 7 23
h 2.336137 4 6 ack 40 ------- 1 4.0 0.0 7 28
r 2.347507 2 3 tcp 1040 ------- 1 0.0 4.0 9 25
h 2.347507 3 6 tcp 1040 ------- 1 0.0 4.0 9 25
r 2.363871 6 4 tcp 1040 ------- 1 0.0 4.0 8 24
r 2.37524 2 3 tcp 1040 ------- 1 0.0 4.0 10 26
h 2.37524 3 6 tcp 1040 ------- 1 0.0 4.0 10 26
+ 2.376137 4 6 ack 40 ------- 1 4.0 0.0 7 28
- 2.376137 4 6 ack 40 ------- 1 4.0 0.0 7 28
d 2.376141 5 6 ack 40 ------- 1 4.0 0.0 7 28
+ 2.38 1 2 cbr 1000 ------- 2 1.0 5.0 13 29
- 2.38 1 2 cbr 1000 ------- 2 1.0 5.0 13 29
+ 2.387507 3 6 tcp 1040 ------- 1 0.0 4.0 9 25
- 2.387507 3 6 tcp 1040 ------- 1 0.0 4.0 9 25
d 2.387511 5 6 tcp 1040 ------- 1 0.0 4.0 9 25
r 2.394 1 2 cbr 1000 ------- 2 1.0 5.0 13 29
+ 2.394 2 3 cbr 1000 ------- 2 1.0 5.0 13 29
- 2.394 2 3 cbr 1000 ------- 2 1.0 5.0 13 29
r 2.401907 2 3 cbr 1000 ------- 2 1.0 5.0 12 27
h 2.401907 3 6 cbr 1000 ------- 2 1.0 5.0 12 27
+ 2.41524 3 6 tcp 1040 ------- 1 0.0 4.0 10 26
- 2.41524 3 6 tcp 1040 ------- 1 0.0 4.0 10 26
d 2.415244 5 6 tcp 1040 ------- 1 0.0 4.0 10 26
r 2.416141 6 3 ack 40 ------- 1 4.0 0.0 7 28
+ 2.416141 3 2 ack 40 ------- 1 4.0 0.0 7 28
- 2.416141 3 2 ack 40 ------- 1 4.0 0.0 7 28
r 2.427511 6 4 tcp 1040 ------- 1 0.0 4.0 9 25
h 2.427511 4 6 ack 40 ------- 1 4.0 0.0 9 30
+ 2.441907 3 6 cbr 1000 ------- 2 1.0 5.0 12 27
- 2.441907 3 6 cbr 1000 ------- 2 1.0 5.0 12 27
d 2.441911 4 6 cbr 1000 ------- 2 1.0 5.0 12 27
r 2.455244 6 4 tcp 1040 ------- 1 0.0 4.0 10 26
+ 2.467511 4 6 ack 40 ------- 1 4.0 0.0 9 30
- 2.467511 4 6 ack 40 ------- 1 4.0 0.0 9 30
d 2.467515 5 6 ack 40 ------- 1 4.0 0.0 9 30
r 2.481911 6 5 cbr 1000 ------- 2 1.0 5.0 12 27
r 2.507515 6 3 ack 40 ------- 1 4.0 0.0 9 30
+ 2.507515 3 2 ack 40 ------- 1 4.0 0.0 9 30
- 2.507515 3 2 ack 40 ------- 1 4.0 0.0 9 30
r 2.517208 3 2 ack 40 ------- 1 4.0 0.0 7 28
+ 2.517208 2 0 ack 40 ------- 1 4.0 0.0 7 28
- 2.517208 2 0 ack 40 ------- 1 4.0 0.0 7 28
r 2.520667 2 3 cbr 1000 ------- 2 1.0 5.0 13 29
h 2.520667 3 6 cbr 1000 ------- 2 1.0 5.0 13 29
r 2.527368 2 0 ack 40 ------- 1 4.0 0.0 7 28
+ 2.527368 0 2 tcp 1040 ------- 1 0.0 4.0 11 31
- 2.527368 0 2 tcp 1040 ------- 1 0.0 4.0 11 31
+ 2.527368 0 2 tcp 1040 ------- 1 0.0 4.0 12 32
+ 2.527368 0 2 tcp 1040 ------- 1 0.0 4.0 13 33
- 2.531528 0 2 tcp 1040 ------- 1 0.0 4.0 12 32
- 2.535688 0 2 tcp 1040 ------- 1 0.0 4.0 13 33
+ 2.54 1 2 cbr 1000 ------- 2 1.0 5.0 14 34
- 2.54 1 2 cbr 1000 ------- 2 1.0 5.0 14 34
r 2.541528 0 2 tcp 1040 ------- 1 0.0 4.0 11 31
+ 2.541528 2 3 tcp 1040 ------- 1 0.0 4.0 11 31
- 2.541528 2 3 tcp 1040 ------- 1 0.0 4.0 11 31
r 2.545688 0 2 tcp 1040 ------- 1 0.0 4.0 12 32
+ 2.545688 2 3 tcp 1040 ------- 1 0.0 4.0 12 32
r 2.549848 0 2 tcp 1040 ------- 1 0.0 4.0 13 33
+ 2.549848 2 3 tcp 1040 ------- 1 0.0 4.0 13 33
r 2.554 1 2 cbr 1000 ------- 2 1.0 5.0 14 34
+ 2.554 2 3 cbr 1000 ------- 2 1.0 5.0 14 34
h 2.555244 4 6 ack 40 ------- 1 4.0 0.0 10 35
+ 2.560667 3 6 cbr 1000 ------- 2 1.0 5.0 13 29
- 2.560667 3 6 cbr 1000 ------- 2 1.0 5.0 13 29
d 2.560671 4 6 cbr 1000 ------- 2 1.0 5.0 13 29
- 2.569261 2 3 tcp 1040 ------- 1 0.0 4.0 12 32
+ 2.595244 4 6 ack 40 ------- 1 4.0 0.0 10 35
- 2.595244 4 6 ack 40 ------- 1 4.0 0.0 10 35
d 2.595248 5 6 ack 40 ------- 1 4.0 0.0 10 35
- 2.596995 2 3 tcp 1040 ------- 1 0.0 4.0 13 33
r 2.600671 6 5 cbr 1000 ------- 2 1.0 5.0 13 29
r 2.608581 3 2 ack 40 ------- 1 4.0 0.0 9 30
+ 2.608581 2 0 ack 40 ------- 1 4.0 0.0 9 30
- 2.608581 2 0 ack 40 ------- 1 4.0 0.0 9 30
r 2.618741 2 0 ack 40 ------- 1 4.0 0.0 9 30
+ 2.618741 0 2 tcp 1040 ------- 1 0.0 4.0 14 36
- 2.618741 0 2 tcp 1040 ------- 1 0.0 4.0 14 36
+ 2.618741 0 2 tcp 1040 ------- 1 0.0 4.0 15 37
+ 2.618741 0 2 tcp 1040 ------- 1 0.0 4.0 16 38
- 2.622901 0 2 tcp 1040 ------- 1 0.0 4.0 15 37
- 2.624728 2 3 cbr 1000 ------- 2 1.0 5.0 14 34
- 2.627061 0 2 tcp 1040 ------- 1 0.0 4.0 16 38
r 2.632901 0 2 tcp 1040 ------- 1 0.0 4.0 14 36
+ 2.632901 2 3 tcp 1040 ------- 1 0.0 4.0 14 36
r 2.635248 6 3 ack 40 ------- 1 4.0 0.0 10 35
+ 2.635248 3 2 ack 40 ------- 1 4.0 0.0 10 35
- 2.635248 3 2 ack 40 ------- 1 4.0 0.0 10 35
r 2.637061 0 2 tcp 1040 ------- 1 0.0 4.0 15 37
+ 2.637061 2 3 tcp 1040 ------- 1 0.0 4.0 15 37
r 2.641221 0 2 tcp 1040 ------- 1 0.0 4.0 16 38
+ 2.641221 2 3 tcp 1040 ------- 1 0.0 4.0 16 38
- 2.651395 2 3 tcp 1040 ------- 1 0.0 4.0 14 36
r 2.669261 2 3 tcp 1040 ------- 1 0.0 4.0 11 31
h 2.669261 3 6 tcp 1040 ------- 1 0.0 4.0 11 31
- 2.679128 2 3 tcp 1040 ------- 1 0.0 4.0 15 37
r 2.696995 2 3 tcp 1040 ------- 1 0.0 4.0 12 32
h 2.696995 3 6 tcp 1040 ------- 1 0.0 4.0 12 32
+ 2.7 1 2 cbr 1000 ------- 2 1.0 5.0 15 39
- 2.7 1 2 cbr 1000 ------- 2 1.0 5.0 15 39
- 2.706861 2 3 tcp 1040 ------- 1 0.0 4.0 16 38
+ 2.709261 3 6 tcp 1040 ------- 1 0.0 4.0 11 31
- 2.709261 3 6 tcp 1040 ------- 1 0.0 4.0 11 31
d 2.709265 5 6 tcp 1040 ------- 1 0.0 4.0 11 31
r 2.714 1 2 cbr 1000 ------- 2 1.0 5.0 15 39
+ 2.714 2 3 cbr 1000 ------- 2 1.0 5.0 15 39
r 2.724728 2 3 tcp 1040 ------- 1 0.0 4.0 13 33
h 2.724728 3 6 tcp 1040 ------- 1 0.0 4.0 13 33
- 2.734595 2 3 cbr 1000 ------- 2 1.0 5.0 15 39
r 2.736315 3 2 ack 40 ------- 1 4.0 0.0 10 35
+ 2.736315 2 0 ack 40 ------- 1 4.0 0.0 10 35
- 2.736315 2 0 ack 40 ------- 1 4.0 0.0 10 35
+ 2.736995 3 6 tcp 1040 ------- 1 0.0 4.0 12 32
- 2.736995 3 6 tcp 1040 ------- 1 0.0 4.0 12 32
d 2.736999 5 6 tcp 1040 ------- 1 0.0 4.0 12 32
r 2.746475 2 0 ack 40 ------- 1 4.0 0.0 10 35
+ 2.746475 0 2 tcp 1040 ------- 1 0.0 4.0 17 40
- 2.746475 0 2 tcp 1040 ------- 1 0.0 4.0 17 40
+ 2.746475 0 2 tcp 1040 ------- 1 0.0 4.0 18 41
r 2.749265 6 4 tcp 1040 ------- 1 0.0 4.0 11 31
- 2.750635 0 2 tcp 1040 ------- 1 0.0 4.0 18 41
r 2.751395 2 3 cbr 1000 ------- 2 1.0 5.0 14 34
h 2.751395 3 6 cbr 1000 ------- 2 1.0 5.0 14 34
r 2.760635 0 2 tcp 1040 ------- 1 0.0 4.0 17 40
+ 2.760635 2 3 tcp 1040 ------- 1 0.0 4.0 17 40
- 2.761261 2 3 tcp 1040 ------- 1 0.0 4.0 17 40
+ 2.764728 3 6 tcp 1040 ------- 1 0.0 4.0 13 33
- 2.764728 3 6 tcp 1040 ------- 1 0.0 4.0 13 33
d 2.764732 5 6 tcp 1040 ------- 1 0.0 4.0 13 33
r 2.764795 0 2 tcp 1040 ------- 1 0.0 4.0 18 41
+ 2.764795 2 3 tcp 1040 ------- 1 0.0 4.0 18 41
r 2.776999 6 4 tcp 1040 ------- 1 0.0 4.0 12 32
h 2.776999 4 6 ack 40 ------- 1 4.0 0.0 12 42
r 2.779128 2 3 tcp 1040 ------- 1 0.0 4.0 14 36
h 2.779128 3 6 tcp 1040 ------- 1 0.0 4.0 14 36
- 2.788995 2 3 tcp 1040 ------- 1 0.0 4.0 18 41
+ 2.791395 3 6 cbr 1000 ------- 2 1.0 5.0 14 34
- 2.791395 3 6 cbr 1000 ------- 2 1.0 5.0 14 34
d 2.791399 4 6 cbr 1000 ------- 2 1.0 5.0 14 34
r 2.804732 6 4 tcp 1040 ------- 1 0.0 4.0 13 33
r 2.806861 2 3 tcp 1040 ------- 1 0.0 4.0 15 37
h 2.806861 3 6 tcp 1040 ------- 1 0.0 4.0 15 37
+ 2.816999 4 6 ack 40 ------- 1 4.0 0.0 12 42
- 2.816999 4 6 ack 40 ------- 1 4.0 0.0 12 42
d 2.817003 5 6 ack 40 ------- 1 4.0 0.0 12 42
+ 2.819128 3 6 tcp 1040 ------- 1 0.0 4.0 14 36
- 2.819128 3 6 tcp 1040 ------- 1 0.0 4.0 14 36
d 2.819132 5 6 tcp 1040 ------- 1 0.0 4.0 14 36
r 2.831399 6 5 cbr 1000 ------- 2 1.0 5.0 14 34
r 2.834595 2 3 tcp 1040 ------- 1 0.0 4.0 16 38
h 2.834595 3 6 tcp 1040 ------- 1 0.0 4.0 16 38
+ 2.846861 3 6 tcp 1040 ------- 1 0.0 4.0 15 37
- 2.846861 3 6 tcp 1040 ------- 1 0.0 4.0 15 37
d 2.846865 5 6 tcp 1040 ------- 1 0.0 4.0 15 37
r 2.857003 6 3 ack 40 ------- 1 4.0 0.0 12 42
+ 2.857003 3 2 ack 40 ------- 1 4.0 0.0 12 42
- 2.857003 3 2 ack 40 ------- 1 4.0 0.0 12 42
r 2.859132 6 4 tcp 1040 ------- 1 0.0 4.0 14 36
h 2.859132 4 6 ack 40 ------- 1 4.0 0.0 14 43
+ 2.86 1 2 cbr 1000 ------- 2 1.0 5.0 16 44
- 2.86 1 2 cbr 1000 ------- 2 1.0 5.0 16 44
r 2.861261 2 3 cbr 1000 ------- 2 1.0 5.0 15 39
h 2.861261 3 6 cbr 1000 ------- 2 1.0 5.0 15 39
r 2.874 1 2 cbr 1000 ------- 2 1.0 5.0 16 44
+ 2.874 2 3 cbr 1000 ------- 2 1.0 5.0 16 44
- 2.874 2 3 cbr 1000 ------- 2 1.0 5.0 16 44
+ 2.874595 3 6 tcp 1040 ------- 1 0.0 4.0 16 38
- 2.874595 3 6 tcp 1040 ------- 1 0.0 4.0 16 38
d 2.874599 5 6 tcp 1040 ------- 1 0.0 4.0 16 38
r 2.886865 6 4 tcp 1040 ------- 1 0.0 4.0 15 37
r 2.888995 2 3 tcp 1040 ------- 1 0.0 4.0 17 40
h 2.888995 3 6 tcp 1040 ------- 1 0.0 4.0 17 40
+ 2.899132 4 6 ack 40 ------- 1 4.0 0.0 14 43
- 2.899132 4 6 ack 40 ------- 1 4.0 0.0 14 43
d 2.899136 5 6 ack 40 ------- 1 4.0 0.0 14 43
+ 2.901261 3 6 cbr 1000 ------- 2 1.0 5.0 15 39
- 2.901261 3 6 cbr 1000 ------- 2 1.0 5.0 15 39
d 2.901265 4 6 cbr 1000 ------- 2 1.0 5.0 15 39
r 2.914599 6 4 tcp 1040 ------- 1 0.0 4.0 16 38
h 2.914599 4 6 ack 40 ------- 1 4.0 0.0 16 45
r 2.916728 2 3 tcp 1040 ------- 1 0.0 4.0 18 41
h 2.916728 3 6 tcp 1040 ------- 1 0.0 4.0 18 41
+ 2.928995 3 6 tcp 1040 ------- 1 0.0 4.0 17 40
- 2.928995 3 6 tcp 1040 ------- 1 0.0 4.0 17 40
d 2.928999 5 6 tcp 1040 ------- 1 0.0 4.0 17 40
r 2.939136 6 3 ack 40 ------- 1 4.0 0.0 14 43
+ 2.939136 3 2 ack 40 ------- 1 4.0 0.0 14 43
- 2.939136 3 2 ack 40 ------- 1 4.0 0.0 14 43
r 2.941265 6 5 cbr 1000 ------- 2 1.0 5.0 15 39
+ 2.954599 4 6 ack 40 ------- 1 4.0 0.0 16 45
- 2.954599 4 6 ack 40 ------- 1 4.0 0.0 16 45
d 2.954603 5 6 ack 40 ------- 1 4.0 0.0 16 45
+ 2.956728 3 6 tcp 1040 ------- 1 0.0 4.0 18 41
- 2.956728 3 6 tcp 1040 ------- 1 0.0 4.0 18 41
d 2.956732 5 6 tcp 1040 ------- 1 0.0 4.0 18 41
r 2.958069 3 2 ack 40 ------- 1 4.0 0.0 12 42
+ 2.958069 2 0 ack 40 ------- 1 4.0 0.0 12 42
- 2.958069 2 0 ack 40 ------- 1 4.0 0.0 12 42
r 2.968229 2 0 ack 40 ------- 1 4.0 0.0 12 42
+ 2.968229 0 2 tcp 1040 ------- 1 0.0 4.0 19 46
- 2.968229 0 2 tcp 1040 ------- 1 0.0 4.0 19 46
+ 2.968229 0 2 tcp 1040 ------- 1 0.0 4.0 20 47
+ 2.968229 0 2 tcp 1040 ------- 1 0.0 4.0 21 48
r 2.968999 6 4 tcp 1040 ------- 1 0.0 4.0 17 40
- 2.972389 0 2 tcp 1040 ------- 1 0.0 4.0 20 47
- 2.976549 0 2 tcp 1040 ------- 1 0.0 4.0 21 48
r 2.982389 0 2 tcp 1040 ------- 1 0.0 4.0 19 46
+ 2.982389 2 3 tcp 1040 ------- 1 0.0 4.0 19 46
- 2.982389 2 3 tcp 1040 ------- 1 0.0 4.0 19 46
r 2.986549 0 2 tcp 1040 ------- 1 0.0 4.0 20 47
+ 2.986549 2 3 tcp 1040 ------- 1 0.0 4.0 20 47
r 2.990709 0 2 tcp 1040 ------- 1 0.0 4.0 21 48
+ 2.990709 2 3 tcp 1040 ------- 1 0.0 4.0 21 48
r 2.994603 6 3 ack 40 ------- 1 4.0 0.0 16 45
+ 2.994603 3 2 ack 40 ------- 1 4.0 0.0 16 45
- 2.994603 3 2 ack 40 ------- 1 4.0 0.0 16 45
r 2.996732 6 4 tcp 1040 ------- 1 0.0 4.0 18 41
h 2.996732 4 6 ack 40 ------- 1 4.0 0.0 18 49
r 3.000667 2 3 cbr 1000 ------- 2 1.0 5.0 16 44
h 3.000667 3 6 cbr 1000 ------- 2 1.0 5.0 16 44
- 3.010123 2 3 tcp 1040 ------- 1 0.0 4.0 20 47
+ 3.02 1 2 cbr 1000 ------- 2 1.0 5.0 17 50
- 3.02 1 2 cbr 1000 ------- 2 1.0 5.0 17 50
r 3.034 1 2 cbr 1000 ------- 2 1.0 5.0 17 50
+ 3.034 2 3 cbr 1000 ------- 2 1.0 5.0 17 50
+ 3.036732 4 6 ack 40 ------- 1 4.0 0.0 18 49
- 3.036732 4 6 ack 40 ------- 1 4.0 0.0 18 49
d 3.036736 5 6 ack 40 ------- 1 4.0 0.0 18 49
- 3.037856 2 3 tcp 1040 ------- 1 0.0 4.0 21 48
r 3.040203 3 2 ack 40 ------- 1 4.0 0.0 14 43
+ 3.040203 2 0 ack 40 ------- 1 4.0 0.0 14 43
- 3.040203 2 0 ack 40 ------- 1 4.0 0.0 14 43
+ 3.040667 3 6 cbr 1000 ------- 2 1.0 5.0 16 44
- 3.040667 3 6 cbr 1000 ------- 2 1.0 5.0 16 44
d 3.040671 4 6 cbr 1000 ------- 2 1.0 5.0 16 44
r 3.050363 2 0 ack 40 ------- 1 4.0 0.0 14 43
+ 3.050363 0 2 tcp 1040 ------- 1 0.0 4.0 22 51
- 3.050363 0 2 tcp 1040 ------- 1 0.0 4.0 22 51
+ 3.050363 0 2 tcp 1040 ------- 1 0.0 4.0 23 52
+ 3.050363 0 2 tcp 1040 ------- 1 0.0 4.0 24 53
- 3.054523 0 2 tcp 1040 ------- 1 0.0 4.0 23 52
- 3.058683 0 2 tcp 1040 ------- 1 0.0 4.0 24 53
r 3.064523 0 2 tcp 1040 ------- 1 0.0 4.0 22 51
+ 3.064523 2 3 tcp 1040 ------- 1 0.0 4.0 22 51
- 3.065589 2 3 cbr 1000 ------- 2 1.0 5.0 17 50
r 3.068683 0 2 tcp 1040 ------- 1 0.0 4.0 23 52
+ 3.068683 2 3 tcp 1040 ------- 1 0.0 4.0 23 52
r 3.072843 0 2 tcp 1040 ------- 1 0.0 4.0 24 53
+ 3.072843 2 3 tcp 1040 ------- 1 0.0 4.0 24 53
r 3.076736 6 3 ack 40 ------- 1 4.0 0.0 18 49
+ 3.076736 3 2 ack 40 ------- 1 4.0 0.0 18 49
- 3.076736 3 2 ack 40 ------- 1 4.0 0.0 18 49
r 3.080671 6 5 cbr 1000 ------- 2 1.0 5.0 16 44
- 3.092256 2 3 tcp 1040 ------- 1 0.0 4.0 22 51
r 3.095669 3 2 ack 40 ------- 1 4.0 0.0 16 45
+ 3.095669 2 0 ack 40 ------- 1 4.0 0.0 16 45
- 3.095669 2 0 ack 40 ------- 1 4.0 0.0 16 45
r 3.105829 2 0 ack 40 ------- 1 4.0 0.0 16 45
+ 3.105829 0 2 tcp 1040 ------- 1 0.0 4.0 25 54
- 3.105829 0 2 tcp 1040 ------- 1 0.0 4.0 25 54
+ 3.105829 0 2 tcp 1040 ------- 1 0.0 4.0 26 55
+ 3.105829 0 2 tcp 1040 ------- 1 0.0 4.0 27 56
- 3.109989 0 2 tcp 1040 ------- 1 0.0 4.0 26 55
r 3.110123 2 3 tcp 1040 ------- 1 0.0 4.0 19 46
h 3.110123 3 6 tcp 1040 ------- 1 0.0 4.0 19 46
- 3.114149 0 2 tcp 1040 ------- 1 0.0 4.0 27 56
- 3.119989 2 3 tcp 1040 ------- 1 0.0 4.0 23 52
r 3.119989 0 2 tcp 1040 ------- 1 0.0 4.0 25 54
+ 3.119989 2 3 tcp 1040 ------- 1 0.0 4.0 25 54
r 3.124149 0 2 tcp 1040 ------- 1 0.0 4.0 26 55
+ 3.124149 2 3 tcp 1040 ------- 1 0.0 4.0 26 55
r 3.128309 0 2 tcp 1040 ------- 1 0.0 4.0 27 56
+ 3.128309 2 3 tcp 1040 ------- 1 0.0 4.0 27 56
r 3.137856 2 3 tcp 1040 ------- 1 0.0 4.0 20 47
h 3.137856 3 6 tcp 1040 ------- 1 0.0 4.0 20 47
- 3.147723 2 3 tcp 1040 ------- 1 0.0 4.0 24 53
+ 3.150123 3 6 tcp 1040 ------- 1 0.0 4.0 19 46
- 3.150123 3 6 tcp 1040 ------- 1 0.0 4.0 19 46
d 3.150127 5 6 tcp 1040 ------- 1 0.0 4.0 19 46
r 3.165589 2 3 tcp 1040 ------- 1 0.0 4.0 21 48
h 3.165589 3 6 tcp 1040 ------- 1 0.0 4.0 21 48
- 3.175456 2 3 tcp 1040 ------- 1 0.0 4.0 25 54
r 3.177803 3 2 ack 40 ------- 1 4.0 0.0 18 49
+ 3.177803 2 0 ack 40 ------- 1 4.0 0.0 18 49
- 3.177803 2 0 ack 40 ------- 1 4.0 0.0 18 49
+ 3.177856 3 6 tcp 1040 ------- 1 0.0 4.0 20 47
- 3.177856 3 6 tcp 1040 ------- 1 0.0 4.0 20 47
d 3.17786 5 6 tcp 1040 ------- 1 0.0 4.0 20 47
+ 3.18 1 2 cbr 1000 ------- 2 1.0 5.0 18 57
- 3.18 1 2 cbr 1000 ------- 2 1.0 5.0 18 57
r 3.187963 2 0 ack 40 ------- 1 4.0 0.0 18 49
+ 3.187963 0 2 tcp 1040 ------- 1 0.0 4.0 28 58
- 3.187963 0 2 tcp 1040 ------- 1 0.0 4.0 28 58
+ 3.187963 0 2 tcp 1040 ------- 1 0.0 4.0 29 59
+ 3.187963 0 2 tcp 1040 ------- 1 0.0 4.0 30 60
r 3.190127 6 4 tcp 1040 ------- 1 0.0 4.0 19 46
- 3.192123 0 2 tcp 1040 ------- 1 0.0 4.0 29 59
r 3.192256 2 3 cbr 1000 ------- 2 1.0 5.0 17 50
h 3.192256 3 6 cbr 1000 ------- 2 1.0 5.0 17 50
r 3.194 1 2 cbr 1000 ------- 2 1.0 5.0 18 57
+ 3.194 2 3 cbr 1000 ------- 2 1.0 5.0 18 57
- 3.196283 0 2 tcp 1040 ------- 1 0.0 4.0 30 60
r 3.202123 0 2 tcp 1040 ------- 1 0.0 4.0 28 58
+ 3.202123 2 3 tcp 1040 ------- 1 0.0 4.0 28 58
- 3.203189 2 3 tcp 1040 ------- 1 0.0 4.0 26 55
+ 3.205589 3 6 tcp 1040 ------- 1 0.0 4.0 21 48
- 3.205589 3 6 tcp 1040 ------- 1 0.0 4.0 21 48
d 3.205593 5 6 tcp 1040 ------- 1 0.0 4.0 21 48
r 3.206283 0 2 tcp 1040 ------- 1 0.0 4.0 29 59
+ 3.206283 2 3 tcp 1040 ------- 1 0.0 4.0 29 59
r 3.210443 0 2 tcp 1040 ------- 1 0.0 4.0 30 60
+ 3.210443 2 3 tcp 1040 ------- 1 0.0 4.0 30 60
r 3.21786 6 4 tcp 1040 ------- 1 0.0 4.0 20 47
h 3.21786 4 6 ack 40 ------- 1 4.0 0.0 20 61
r 3.219989 2 3 tcp 1040 ------- 1 0.0 4.0 22 51
h 3.219989 3 6 tcp 1040 ------- 1 0.0 4.0 22 51
- 3.230923 2 3 tcp 1040 ------- 1 0.0 4.0 27 56
+ 3.232256 3 6 cbr 1000 ------- 2 1.0 5.0 17 50
- 3.232256 3 6 cbr 1000 ------- 2 1.0 5.0 17 50
d 3.23226 4 6 cbr 1000 ------- 2 1.0 5.0 17 50
r 3.245593 6 4 tcp 1040 ------- 1 0.0 4.0 21 48
r 3.247723 2 3 tcp 1040 ------- 1 0.0 4.0 23 52
h 3.247723 3 6 tcp 1040 ------- 1 0.0 4.0 23 52
+ 3.25786 4 6 ack 40 ------- 1 4.0 0.0 20 61
- 3.25786 4 6 ack 40 ------- 1 4.0 0.0 20 61
d 3.257864 5 6 ack 40 ------- 1 4.0 0.0 20 61
- 3.258656 2 3 cbr 1000 ------- 2 1.0 5.0 18 57
+ 3.259989 3 6 tcp 1040 ------- 1 0.0 4.0 22 51
- 3.259989 3 6 tcp 1040 ------- 1 0.0 4.0 22 51
d 3.259993 5 6 tcp 1040 ------- 1 0.0 4.0 22 51
r 3.27226 6 5 cbr 1000 ------- 2 1.0 5.0 17 50
r 3.275456 2 3 tcp 1040 ------- 1 0.0 4.0 24 53
h 3.275456 3 6 tcp 1040 ------- 1 0.0 4.0 24 53
- 3.285323 2 3 tcp 1040 ------- 1 0.0 4.0 28 58
+ 3.287723 3 6 tcp 1040 ------- 1 0.0 4.0 23 52
- 3.287723 3 6 tcp 1040 ------- 1 0.0 4.0 23 52
d 3.287727 5 6 tcp 1040 ------- 1 0.0 4.0 23 52
r 3.297864 6 3 ack 40 ------- 1 4.0 0.0 20 61
+ 3.297864 3 2 ack 40 ------- 1 4.0 0.0 20 61
- 3.297864 3 2 ack 40 ------- 1 4.0 0.0 20 61
r 3.299993 6 4 tcp 1040 ------- 1 0.0 4.0 22 51
h 3.299993 4 6 ack 40 ------- 1 4.0 0.0 22 62
r 3.303189 2 3 tcp 1040 ------- 1 0.0 4.0 25 54
h 3.303189 3 6 tcp 1040 ------- 1 0.0 4.0 25 54
- 3.313056 2 3 tcp 1040 ------- 1 0.0 4.0 29 59
+ 3.315456 3 6 tcp 1040 ------- 1 0.0 4.0 24 53
- 3.315456 3 6 tcp 1040 ------- 1 0.0 4.0 24 53
d 3.31546 5 6 tcp 1040 ------- 1 0.0 4.0 24 53
r 3.327727 6 4 tcp 1040 ------- 1 0.0 4.0 23 52
r 3.330923 2 3 tcp 1040 ------- 1 0.0 4.0 26 55
h 3.330923 3 6 tcp 1040 ------- 1 0.0 4.0 26 55
+ 3.339993 4 6 ack 40 ------- 1 4.0 0.0 22 62
- 3.339993 4 6 ack 40 ------- 1 4.0 0.0 22 62
d 3.339997 5 6 ack 40 ------- 1 4.0 0.0 22 62
+ 3.34 1 2 cbr 1000 ------- 2 1.0 5.0 19 63
- 3.34 1 2 cbr 1000 ------- 2 1.0 5.0 19 63
- 3.340789 2 3 tcp 1040 ------- 1 0.0 4.0 30 60
+ 3.343189 3 6 tcp 1040 ------- 1 0.0 4.0 25 54
- 3.343189 3 6 tcp 1040 ------- 1 0.0 4.0 25 54