+ 0.5 0 2 tcp 40 ------- 1 0.0 3.0 0 0
- 0.5 0 2 tcp 40 ------- 1 0.0 3.0 0 0
r 0.51016 0 2 tcp 40 ------- 1 0.0 3.0 0 0
+ 0.51016 2 3 tcp 40 ------- 1 0.0 3.0 0 0
- 0.51016 2 3 tcp 40 ------- 1 0.0 3.0 0 0
r 0.5208 2 3 tcp 40 ------- 1 0.0 3.0 0 0
+ 0.5208 3 2 ack 40 ------- 1 3.0 0.0 0 1
- 0.5208 3 2 ack 40 ------- 1 3.0 0.0 0 1
r 0.53144 3 2 ack 40 ------- 1 3.0 0.0 0 1
+ 0.53144 2 0 ack 40 ------- 1 3.0 0.0 0 1
- 0.53144 2 0 ack 40 ------- 1 3.0 0.0 0 1
r 0.5416 2 0 ack 40 ------- 1 3.0 0.0 0 1
+ 0.5416 0 2 tcp 1040 ------- 1 0.0 3.0 1 2
- 0.5416 0 2 tcp 1040 ------- 1 0.0 3.0 1 2
+ 0.5416 0 2 tcp 1040 ------- 1 0.0 3.0 2 3
- 0.54576 0 2 tcp 1040 ------- 1 0.0 3.0 2 3
r 0.55576 0 2 tcp 1040 ------- 1 0.0 3.0 1 2
+ 0.55576 2 3 tcp 1040 ------- 1 0.0 3.0 1 2
- 0.55576 2 3 tcp 1040 ------- 1 0.0 3.0 1 2
r 0.55992 0 2 tcp 1040 ------- 1 0.0 3.0 2 3
+ 0.55992 2 3 tcp 1040 ------- 1 0.0 3.0 2 3
- 0.5724 2 3 tcp 1040 ------- 1 0.0 3.0 2 3
r 0.5824 2 3 tcp 1040 ------- 1 0.0 3.0 1 2
+ 0.5824 3 2 ack 40 ------- 1 3.0 0.0 1 4
- 0.5824 3 2 ack 40 ------- 1 3.0 0.0 1 4
r 0.59304 3 2 ack 40 ------- 1 3.0 0.0 1 4
+ 0.59304 2 0 ack 40 ------- 1 3.0 0.0 1 4
- 0.59304 2 0 ack 40 ------- 1 3.0 0.0 1 4
r 0.59904 2 3 tcp 1040 ------- 1 0.0 3.0 2 3
+ 0.59904 3 2 ack 40 ------- 1 3.0 0.0 2 5
- 0.59904 3 2 ack 40 ------- 1 3.0 0.0 2 5
r 0.6032 2 0 ack 40 ------- 1 3.0 0.0 1 4
+ 0.6032 0 2 tcp 1040 ------- 1 0.0 3.0 3 6
- 0.6032 0 2 tcp 1040 ------- 1 0.0 3.0 3 6
+ 0.6032 0 2 tcp 1040 ------- 1 0.0 3.0 4 7
- 0.60736 0 2 tcp 1040 ------- 1 0.0 3.0 4 7
r 0.60968 3 2 ack 40 ------- 1 3.0 0.0 2 5
+ 0.60968 2 0 ack 40 ------- 1 3.0 0.0 2 5
- 0.60968 2 0 ack 40 ------- 1 3.0 0.0 2 5
r 0.61736 0 2 tcp 1040 ------- 1 0.0 3.0 3 6
+ 0.61736 2 3 tcp 1040 ------- 1 0.0 3.0 3 6
- 0.61736 2 3 tcp 1040 ------- 1 0.0 3.0 3 6
r 0.61984 2 0 ack 40 ------- 1 3.0 0.0 2 5
+ 0.61984 0 2 tcp 1040 ------- 1 0.0 3.0 5 8
- 0.61984 0 2 tcp 1040 ------- 1 0.0 3.0 5 8
+ 0.61984 0 2 tcp 1040 ------- 1 0.0 3.0 6 9
r 0.62152 0 2 tcp 1040 ------- 1 0.0 3.0 4 7
+ 0.62152 2 3 tcp 1040 ------- 1 0.0 3.0 4 7
- 0.624 0 2 tcp 1040 ------- 1 0.0 3.0 6 9
- 0.634 2 3 tcp 1040 ------- 1 0.0 3.0 4 7
r 0.634 0 2 tcp 1040 ------- 1 0.0 3.0 5 8
+ 0.634 2 3 tcp 1040 ------- 1 0.0 3.0 5 8
r 0.63816 0 2 tcp 1040 ------- 1 0.0 3.0 6 9
+ 0.63816 2 3 tcp 1040 ------- 1 0.0 3.0 6 9
r 0.644 2 3 tcp 1040 ------- 1 0.0 3.0 3 6
+ 0.644 3 2 ack 40 ------- 1 3.0 0.0 3 10
- 0.644 3 2 ack 40 ------- 1 3.0 0.0 3 10
- 0.65064 2 3 tcp 1040 ------- 1 0.0 3.0 5 8
r 0.65464 3 2 ack 40 ------- 1 3.0 0.0 3 10
+ 0.65464 2 0 ack 40 ------- 1 3.0 0.0 3 10
- 0.65464 2 0 ack 40 ------- 1 3.0 0.0 3 10
r 0.66064 2 3 tcp 1040 ------- 1 0.0 3.0 4 7
+ 0.66064 3 2 ack 40 ------- 1 3.0 0.0 4 11
- 0.66064 3 2 ack 40 ------- 1 3.0 0.0 4 11
r 0.6648 2 0 ack 40 ------- 1 3.0 0.0 3 10
+ 0.6648 0 2 tcp 1040 ------- 1 0.0 3.0 7 12
- 0.6648 0 2 tcp 1040 ------- 1 0.0 3.0 7 12
+ 0.6648 0 2 tcp 1040 ------- 1 0.0 3.0 8 13
- 0.66728 2 3 tcp 1040 ------- 1 0.0 3.0 6 9
- 0.66896 0 2 tcp 1040 ------- 1 0.0 3.0 8 13
r 0.67128 3 2 ack 40 ------- 1 3.0 0.0 4 11
+ 0.67128 2 0 ack 40 ------- 1 3.0 0.0 4 11
- 0.67128 2 0 ack 40 ------- 1 3.0 0.0 4 11
r 0.67728 2 3 tcp 1040 ------- 1 0.0 3.0 5 8
+ 0.67728 3 2 ack 40 ------- 1 3.0 0.0 5 14
- 0.67728 3 2 ack 40 ------- 1 3.0 0.0 5 14
r 0.67896 0 2 tcp 1040 ------- 1 0.0 3.0 7 12
+ 0.67896 2 3 tcp 1040 ------- 1 0.0 3.0 7 12
r 0.68144 2 0 ack 40 ------- 1 3.0 0.0 4 11
+ 0.68144 0 2 tcp 1040 ------- 1 0.0 3.0 9 15
- 0.68144 0 2 tcp 1040 ------- 1 0.0 3.0 9 15
+ 0.68144 0 2 tcp 1040 ------- 1 0.0 3.0 10 16
r 0.68312 0 2 tcp 1040 ------- 1 0.0 3.0 8 13
+ 0.68312 2 3 tcp 1040 ------- 1 0.0 3.0 8 13
- 0.68392 2 3 tcp 1040 ------- 1 0.0 3.0 7 12
- 0.6856 0 2 tcp 1040 ------- 1 0.0 3.0 10 16
r 0.68792 3 2 ack 40 ------- 1 3.0 0.0 5 14
+ 0.68792 2 0 ack 40 ------- 1 3.0 0.0 5 14
- 0.68792 2 0 ack 40 ------- 1 3.0 0.0 5 14
r 0.69392 2 3 tcp 1040 ------- 1 0.0 3.0 6 9
+ 0.69392 3 2 ack 40 ------- 1 3.0 0.0 6 17
- 0.69392 3 2 ack 40 ------- 1 3.0 0.0 6 17
r 0.6956 0 2 tcp 1040 ------- 1 0.0 3.0 9 15
+ 0.6956 2 3 tcp 1040 ------- 1 0.0 3.0 9 15
r 0.69808 2 0 ack 40 ------- 1 3.0 0.0 5 14
+ 0.69808 0 2 tcp 1040 ------- 1 0.0 3.0 11 18
- 0.69808 0 2 tcp 1040 ------- 1 0.0 3.0 11 18
+ 0.69808 0 2 tcp 1040 ------- 1 0.0 3.0 12 19
r 0.69976 0 2 tcp 1040 ------- 1 0.0 3.0 10 16
+ 0.69976 2 3 tcp 1040 ------- 1 0.0 3.0 10 16
- 0.70056 2 3 tcp 1040 ------- 1 0.0 3.0 8 13
- 0.70224 0 2 tcp 1040 ------- 1 0.0 3.0 12 19
r 0.70456 3 2 ack 40 ------- 1 3.0 0.0 6 17
+ 0.70456 2 0 ack 40 ------- 1 3.0 0.0 6 17
- 0.70456 2 0 ack 40 ------- 1 3.0 0.0 6 17
r 0.71056 2 3 tcp 1040 ------- 1 0.0 3.0 7 12
+ 0.71056 3 2 ack 40 ------- 1 3.0 0.0 7 20
- 0.71056 3 2 ack 40 ------- 1 3.0 0.0 7 20
r 0.71224 0 2 tcp 1040 ------- 1 0.0 3.0 11 18
+ 0.71224 2 3 tcp 1040 ------- 1 0.0 3.0 11 18
r 0.71472 2 0 ack 40 ------- 1 3.0 0.0 6 17
+ 0.71472 0 2 tcp 1040 ------- 1 0.0 3.0 13 21
- 0.71472 0 2 tcp 1040 ------- 1 0.0 3.0 13 21
+ 0.71472 0 2 tcp 1040 ------- 1 0.0 3.0 14 22
r 0.7164 0 2 tcp 1040 ------- 1 0.0 3.0 12 19
+ 0.7164 2 3 tcp 1040 ------- 1 0.0 3.0 12 19
- 0.7172 2 3 tcp 1040 ------- 1 0.0 3.0 9 15
- 0.71888 0 2 tcp 1040 ------- 1 0.0 3.0 14 22
r 0.7212 3 2 ack 40 ------- 1 3.0 0.0 7 20
+ 0.7212 2 0 ack 40 ------- 1 3.0 0.0 7 20
- 0.7212 2 0 ack 40 ------- 1 3.0 0.0 7 20
r 0.7272 2 3 tcp 1040 ------- 1 0.0 3.0 8 13
+ 0.7272 3 2 ack 40 ------- 1 3.0 0.0 8 23
- 0.7272 3 2 ack 40 ------- 1 3.0 0.0 8 23
r 0.72888 0 2 tcp 1040 ------- 1 0.0 3.0 13 21
+ 0.72888 2 3 tcp 1040 ------- 1 0.0 3.0 13 21
r 0.73136 2 0 ack 40 ------- 1 3.0 0.0 7 20
+ 0.73136 0 2 tcp 1040 ------- 1 0.0 3.0 15 24
- 0.73136 0 2 tcp 1040 ------- 1 0.0 3.0 15 24
+ 0.73136 0 2 tcp 1040 ------- 1 0.0 3.0 16 25
r 0.73304 0 2 tcp 1040 ------- 1 0.0 3.0 14 22
+ 0.73304 2 3 tcp 1040 ------- 1 0.0 3.0 14 22
- 0.73384 2 3 tcp 1040 ------- 1 0.0 3.0 10 16
- 0.73552 0 2 tcp 1040 ------- 1 0.0 3.0 16 25
r 0.73784 3 2 ack 40 ------- 1 3.0 0.0 8 23
+ 0.73784 2 0 ack 40 ------- 1 3.0 0.0 8 23
- 0.73784 2 0 ack 40 ------- 1 3.0 0.0 8 23
r 0.74384 2 3 tcp 1040 ------- 1 0.0 3.0 9 15
+ 0.74384 3 2 ack 40 ------- 1 3.0 0.0 9 26
- 0.74384 3 2 ack 40 ------- 1 3.0 0.0 9 26
r 0.74552 0 2 tcp 1040 ------- 1 0.0 3.0 15 24
+ 0.74552 2 3 tcp 1040 ------- 1 0.0 3.0 15 24
r 0.748 2 0 ack 40 ------- 1 3.0 0.0 8 23
+ 0.748 0 2 tcp 1040 ------- 1 0.0 3.0 17 27
- 0.748 0 2 tcp 1040 ------- 1 0.0 3.0 17 27
+ 0.748 0 2 tcp 1040 ------- 1 0.0 3.0 18 28
r 0.74968 0 2 tcp 1040 ------- 1 0.0 3.0 16 25
+ 0.74968 2 3 tcp 1040 ------- 1 0.0 3.0 16 25
- 0.75048 2 3 tcp 1040 ------- 1 0.0 3.0 11 18
- 0.75216 0 2 tcp 1040 ------- 1 0.0 3.0 18 28
r 0.75448 3 2 ack 40 ------- 1 3.0 0.0 9 26
+ 0.75448 2 0 ack 40 ------- 1 3.0 0.0 9 26
- 0.75448 2 0 ack 40 ------- 1 3.0 0.0 9 26
r 0.76048 2 3 tcp 1040 ------- 1 0.0 3.0 10 16
+ 0.76048 3 2 ack 40 ------- 1 3.0 0.0 10 29
- 0.76048 3 2 ack 40 ------- 1 3.0 0.0 10 29
r 0.76216 0 2 tcp 1040 ------- 1 0.0 3.0 17 27
+ 0.76216 2 3 tcp 1040 ------- 1 0.0 3.0 17 27
r 0.76464 2 0 ack 40 ------- 1 3.0 0.0 9 26
+ 0.76464 0 2 tcp 1040 ------- 1 0.0 3.0 19 30
- 0.76464 0 2 tcp 1040 ------- 1 0.0 3.0 19 30
+ 0.76464 0 2 tcp 1040 ------- 1 0.0 3.0 20 31
r 0.76632 0 2 tcp 1040 ------- 1 0.0 3.0 18 28
+ 0.76632 2 3 tcp 1040 ------- 1 0.0 3.0 18 28
- 0.76712 2 3 tcp 1040 ------- 1 0.0 3.0 12 19
- 0.7688 0 2 tcp 1040 ------- 1 0.0 3.0 20 31
r 0.77112 3 2 ack 40 ------- 1 3.0 0.0 10 29
+ 0.77112 2 0 ack 40 ------- 1 3.0 0.0 10 29
- 0.77112 2 0 ack 40 ------- 1 3.0 0.0 10 29
r 0.77712 2 3 tcp 1040 ------- 1 0.0 3.0 11 18
+ 0.77712 3 2 ack 40 ------- 1 3.0 0.0 11 32
- 0.77712 3 2 ack 40 ------- 1 3.0 0.0 11 32
r 0.7788 0 2 tcp 1040 ------- 1 0.0 3.0 19 30
+ 0.7788 2 3 tcp 1040 ------- 1 0.0 3.0 19 30
r 0.78128 2 0 ack 40 ------- 1 3.0 0.0 10 29
+ 0.78128 0 2 tcp 1040 ------- 1 0.0 3.0 21 33
- 0.78128 0 2 tcp 1040 ------- 1 0.0 3.0 21 33
+ 0.78128 0 2 tcp 1040 ------- 1 0.0 3.0 22 34
r 0.78296 0 2 tcp 1040 ------- 1 0.0 3.0 20 31
+ 0.78296 2 3 tcp 1040 ------- 1 0.0 3.0 20 31
- 0.78376 2 3 tcp 1040 ------- 1 0.0 3.0 13 21
- 0.78544 0 2 tcp 1040 ------- 1 0.0 3.0 22 34
r 0.78776 3 2 ack 40 ------- 1 3.0 0.0 11 32
+ 0.78776 2 0 ack 40 ------- 1 3.0 0.0 11 32
- 0.78776 2 0 ack 40 ------- 1 3.0 0.0 11 32
r 0.79376 2 3 tcp 1040 ------- 1 0.0 3.0 12 19
+ 0.79376 3 2 ack 40 ------- 1 3.0 0.0 12 35
- 0.79376 3 2 ack 40 ------- 1 3.0 0.0 12 35
r 0.79544 0 2 tcp 1040 ------- 1 0.0 3.0 21 33
+ 0.79544 2 3 tcp 1040 ------- 1 0.0 3.0 21 33
r 0.79792 2 0 ack 40 ------- 1 3.0 0.0 11 32
+ 0.79792 0 2 tcp 1040 ------- 1 0.0 3.0 23 36
- 0.79792 0 2 tcp 1040 ------- 1 0.0 3.0 23 36
+ 0.79792 0 2 tcp 1040 ------- 1 0.0 3.0 24 37
r 0.7996 0 2 tcp 1040 ------- 1 0.0 3.0 22 34
+ 0.7996 2 3 tcp 1040 ------- 1 0.0 3.0 22 34
- 0.8004 2 3 tcp 1040 ------- 1 0.0 3.0 14 22
- 0.80208 0 2 tcp 1040 ------- 1 0.0 3.0 24 37
r 0.8044 3 2 ack 40 ------- 1 3.0 0.0 12 35
+ 0.8044 2 0 ack 40 ------- 1 3.0 0.0 12 35
- 0.8044 2 0 ack 40 ------- 1 3.0 0.0 12 35
r 0.8104 2 3 tcp 1040 ------- 1 0.0 3.0 13 21
+ 0.8104 3 2 ack 40 ------- 1 3.0 0.0 13 38
- 0.8104 3 2 ack 40 ------- 1 3.0 0.0 13 38
r 0.81208 0 2 tcp 1040 ------- 1 0.0 3.0 23 36
+ 0.81208 2 3 tcp 1040 ------- 1 0.0 3.0 23 36
r 0.81456 2 0 ack 40 ------- 1 3.0 0.0 12 35
+ 0.81456 0 2 tcp 1040 ------- 1 0.0 3.0 25 39
- 0.81456 0 2 tcp 1040 ------- 1 0.0 3.0 25 39
+ 0.81456 0 2 tcp 1040 ------- 1 0.0 3.0 26 40
r 0.81624 0 2 tcp 1040 ------- 1 0.0 3.0 24 37
+ 0.81624 2 3 tcp 1040 ------- 1 0.0 3.0 24 37
- 0.81704 2 3 tcp 1040 ------- 1 0.0 3.0 15 24
- 0.81872 0 2 tcp 1040 ------- 1 0.0 3.0 26 40
r 0.82104 3 2 ack 40 ------- 1 3.0 0.0 13 38
+ 0.82104 2 0 ack 40 ------- 1 3.0 0.0 13 38
- 0.82104 2 0 ack 40 ------- 1 3.0 0.0 13 38
r 0.82704 2 3 tcp 1040 ------- 1 0.0 3.0 14 22
+ 0.82704 3 2 ack 40 ------- 1 3.0 0.0 14 41
- 0.82704 3 2 ack 40 ------- 1 3.0 0.0 14 41
r 0.82872 0 2 tcp 1040 ------- 1 0.0 3.0 25 39
+ 0.82872 2 3 tcp 1040 ------- 1 0.0 3.0 25 39
r 0.8312 2 0 ack 40 ------- 1 3.0 0.0 13 38
+ 0.8312 0 2 tcp 1040 ------- 1 0.0 3.0 27 42
- 0.8312 0 2 tcp 1040 ------- 1 0.0 3.0 27 42
+ 0.8312 0 2 tcp 1040 ------- 1 0.0 3.0 28 43
r 0.83288 0 2 tcp 1040 ------- 1 0.0 3.0 26 40
+ 0.83288 2 3 tcp 1040 ------- 1 0.0 3.0 26 40
- 0.83368 2 3 tcp 1040 ------- 1 0.0 3.0 16 25
- 0.83536 0 2 tcp 1040 ------- 1 0.0 3.0 28 43
r 0.83768 3 2 ack 40 ------- 1 3.0 0.0 14 41
+ 0.83768 2 0 ack 40 ------- 1 3.0 0.0 14 41
- 0.83768 2 0 ack 40 ------- 1 3.0 0.0 14 41
r 0.84368 2 3 tcp 1040 ------- 1 0.0 3.0 15 24
+ 0.84368 3 2 ack 40 ------- 1 3.0 0.0 15 44
- 0.84368 3 2 ack 40 ------- 1 3.0 0.0 15 44
r 0.84536 0 2 tcp 1040 ------- 1 0.0 3.0 27 42
+ 0.84536 2 3 tcp 1040 ------- 1 0.0 3.0 27 42
r 0.84784 2 0 ack 40 ------- 1 3.0 0.0 14 41
+ 0.84784 0 2 tcp 1040 ------- 1 0.0 3.0 29 45
- 0.84784 0 2 tcp 1040 ------- 1 0.0 3.0 29 45
+ 0.84784 0 2 tcp 1040 ------- 1 0.0 3.0 30 46
r 0.84952 0 2 tcp 1040 ------- 1 0.0 3.0 28 43
+ 0.84952 2 3 tcp 1040 ------- 1 0.0 3.0 28 43
- 0.85032 2 3 tcp 1040 ------- 1 0.0 3.0 17 27
- 0.852 0 2 tcp 1040 ------- 1 0.0 3.0 30 46
r 0.85432 3 2 ack 40 ------- 1 3.0 0.0 15 44
+ 0.85432 2 0 ack 40 ------- 1 3.0 0.0 15 44
- 0.85432 2 0 ack 40 ------- 1 3.0 0.0 15 44
r 0.86032 2 3 tcp 1040 ------- 1 0.0 3.0 16 25
+ 0.86032 3 2 ack 40 ------- 1 3.0 0.0 16 47
- 0.86032 3 2 ack 40 ------- 1 3.0 0.0 16 47
r 0.862 0 2 tcp 1040 ------- 1 0.0 3.0 29 45
+ 0.862 2 3 tcp 1040 ------- 1 0.0 3.0 29 45
r 0.86448 2 0 ack 40 ------- 1 3.0 0.0 15 44
+ 0.86448 0 2 tcp 1040 ------- 1 0.0 3.0 31 48
- 0.86448 0 2 tcp 1040 ------- 1 0.0 3.0 31 48
+ 0.86448 0 2 tcp 1040 ------- 1 0.0 3.0 32 49
r 0.86616 0 2 tcp 1040 ------- 1 0.0 3.0 30 46
+ 0.86616 2 3 tcp 1040 ------- 1 0.0 3.0 30 46
- 0.86696 2 3 tcp 1040 ------- 1 0.0 3.0 18 28
- 0.86864 0 2 tcp 1040 ------- 1 0.0 3.0 32 49
r 0.87096 3 2 ack 40 ------- 1 3.0 0.0 16 47
+ 0.87096 2 0 ack 40 ------- 1 3.0 0.0 16 47
- 0.87096 2 0 ack 40 ------- 1 3.0 0.0 16 47
r 0.87696 2 3 tcp 1040 ------- 1 0.0 3.0 17 27
+ 0.87696 3 2 ack 40 ------- 1 3.0 0.0 17 50
- 0.87696 3 2 ack 40 ------- 1 3.0 0.0 17 50
r 0.87864 0 2 tcp 1040 ------- 1 0.0 3.0 31 48
+ 0.87864 2 3 tcp 1040 ------- 1 0.0 3.0 31 48
r 0.88112 2 0 ack 40 ------- 1 3.0 0.0 16 47
+ 0.88112 0 2 tcp 1040 ------- 1 0.0 3.0 33 51
- 0.88112 0 2 tcp 1040 ------- 1 0.0 3.0 33 51
+ 0.88112 0 2 tcp 1040 ------- 1 0.0 3.0 34 52
r 0.8828 0 2 tcp 1040 ------- 1 0.0 3.0 32 49
+ 0.8828 2 3 tcp 1040 ------- 1 0.0 3.0 32 49
- 0.8836 2 3 tcp 1040 ------- 1 0.0 3.0 19 30
- 0.88528 0 2 tcp 1040 ------- 1 0.0 3.0 34 52
r 0.8876 3 2 ack 40 ------- 1 3.0 0.0 17 50
+ 0.8876 2 0 ack 40 ------- 1 3.0 0.0 17 50
- 0.8876 2 0 ack 40 ------- 1 3.0 0.0 17 50
r 0.8936 2 3 tcp 1040 ------- 1 0.0 3.0 18 28
+ 0.8936 3 2 ack 40 ------- 1 3.0 0.0 18 53
- 0.8936 3 2 ack 40 ------- 1 3.0 0.0 18 53
r 0.89528 0 2 tcp 1040 ------- 1 0.0 3.0 33 51
+ 0.89528 2 3 tcp 1040 ------- 1 0.0 3.0 33 51
r 0.89776 2 0 ack 40 ------- 1 3.0 0.0 17 50
+ 0.89776 0 2 tcp 1040 ------- 1 0.0 3.0 35 54
- 0.89776 0 2 tcp 1040 ------- 1 0.0 3.0 35 54
+ 0.89776 0 2 tcp 1040 ------- 1 0.0 3.0 36 55
r 0.89944 0 2 tcp 1040 ------- 1 0.0 3.0 34 52
+ 0.89944 2 3 tcp 1040 ------- 1 0.0 3.0 34 52
- 0.90024 2 3 tcp 1040 ------- 1 0.0 3.0 20 31
- 0.90192 0 2 tcp 1040 ------- 1 0.0 3.0 36 55
r 0.90424 3 2 ack 40 ------- 1 3.0 0.0 18 53
+ 0.90424 2 0 ack 40 ------- 1 3.0 0.0 18 53
- 0.90424 2 0 ack 40 ------- 1 3.0 0.0 18 53
r 0.91024 2 3 tcp 1040 ------- 1 0.0 3.0 19 30
+ 0.91024 3 2 ack 40 ------- 1 3.0 0.0 19 56
- 0.91024 3 2 ack 40 ------- 1 3.0 0.0 19 56
r 0.91192 0 2 tcp 1040 ------- 1 0.0 3.0 35 54
+ 0.91192 2 3 tcp 1040 ------- 1 0.0 3.0 35 54
r 0.9144 2 0 ack 40 ------- 1 3.0 0.0 18 53
+ 0.9144 0 2 tcp 1040 ------- 1 0.0 3.0 37 57
- 0.9144 0 2 tcp 1040 ------- 1 0.0 3.0 37 57
+ 0.9144 0 2 tcp 1040 ------- 1 0.0 3.0 38 58
r 0.91608 0 2 tcp 1040 ------- 1 0.0 3.0 36 55
+ 0.91608 2 3 tcp 1040 ------- 1 0.0 3.0 36 55
- 0.91688 2 3 tcp 1040 ------- 1 0.0 3.0 21 33
- 0.91856 0 2 tcp 1040 ------- 1 0.0 3.0 38 58
r 0.92088 3 2 ack 40 ------- 1 3.0 0.0 19 56
+ 0.92088 2 0 ack 40 ------- 1 3.0 0.0 19 56
- 0.92088 2 0 ack 40 ------- 1 3.0 0.0 19 56
r 0.92688 2 3 tcp 1040 ------- 1 0.0 3.0 20 31
+ 0.92688 3 2 ack 40 ------- 1 3.0 0.0 20 59
- 0.92688 3 2 ack 40 ------- 1 3.0 0.0 20 59
r 0.92856 0 2 tcp 1040 ------- 1 0.0 3.0 37 57
+ 0.92856 2 3 tcp 1040 ------- 1 0.0 3.0 37 57
r 0.93104 2 0 ack 40 ------- 1 3.0 0.0 19 56
+ 0.93104 0 2 tcp 1040 ------- 1 0.0 3.0 39 60
- 0.93104 0 2 tcp 1040 ------- 1 0.0 3.0 39 60
r 0.93272 0 2 tcp 1040 ------- 1 0.0 3.0 38 58
+ 0.93272 2 3 tcp 1040 ------- 1 0.0 3.0 38 58
- 0.93352 2 3 tcp 1040 ------- 1 0.0 3.0 22 34
r 0.93752 3 2 ack 40 ------- 1 3.0 0.0 20 59
+ 0.93752 2 0 ack 40 ------- 1 3.0 0.0 20 59
- 0.93752 2 0 ack 40 ------- 1 3.0 0.0 20 59
r 0.94352 2 3 tcp 1040 ------- 1 0.0 3.0 21 33
+ 0.94352 3 2 ack 40 ------- 1 3.0 0.0 21 61
- 0.94352 3 2 ack 40 ------- 1 3.0 0.0 21 61
r 0.9452 0 2 tcp 1040 ------- 1 0.0 3.0 39 60
+ 0.9452 2 3 tcp 1040 ------- 1 0.0 3.0 39 60
r 0.94768 2 0 ack 40 ------- 1 3.0 0.0 20 59
+ 0.94768 0 2 tcp 1040 ------- 1 0.0 3.0 40 62
- 0.94768 0 2 tcp 1040 ------- 1 0.0 3.0 40 62
- 0.95016 2 3 tcp 1040 ------- 1 0.0 3.0 23 36
r 0.95416 3 2 ack 40 ------- 1 3.0 0.0 21 61
+ 0.95416 2 0 ack 40 ------- 1 3.0 0.0 21 61
- 0.95416 2 0 ack 40 ------- 1 3.0 0.0 21 61
r 0.96016 2 3 tcp 1040 ------- 1 0.0 3.0 22 34
+ 0.96016 3 2 ack 40 ------- 1 3.0 0.0 22 63
- 0.96016 3 2 ack 40 ------- 1 3.0 0.0 22 63
r 0.96184 0 2 tcp 1040 ------- 1 0.0 3.0 40 62
+ 0.96184 2 3 tcp 1040 ------- 1 0.0 3.0 40 62
r 0.96432 2 0 ack 40 ------- 1 3.0 0.0 21 61
+ 0.96432 0 2 tcp 1040 ------- 1 0.0 3.0 41 64
- 0.96432 0 2 tcp 1040 ------- 1 0.0 3.0 41 64
- 0.9668 2 3 tcp 1040 ------- 1 0.0 3.0 24 37
r 0.9708 3 2 ack 40 ------- 1 3.0 0.0 22 63
+ 0.9708 2 0 ack 40 ------- 1 3.0 0.0 22 63
- 0.9708 2 0 ack 40 ------- 1 3.0 0.0 22 63
r 0.9768 2 3 tcp 1040 ------- 1 0.0 3.0 23 36
+ 0.9768 3 2 ack 40 ------- 1 3.0 0.0 23 65
- 0.9768 3 2 ack 40 ------- 1 3.0 0.0 23 65
r 0.97848 0 2 tcp 1040 ------- 1 0.0 3.0 41 64
+ 0.97848 2 3 tcp 1040 ------- 1 0.0 3.0 41 64
r 0.98096 2 0 ack 40 ------- 1 3.0 0.0 22 63
+ 0.98096 0 2 tcp 1040 ------- 1 0.0 3.0 42 66
- 0.98096 0 2 tcp 1040 ------- 1 0.0 3.0 42 66
- 0.98344 2 3 tcp 1040 ------- 1 0.0 3.0 25 39
r 0.98744 3 2 ack 40 ------- 1 3.0 0.0 23 65
+ 0.98744 2 0 ack 40 ------- 1 3.0 0.0 23 65
- 0.98744 2 0 ack 40 ------- 1 3.0 0.0 23 65
r 0.99344 2 3 tcp 1040 ------- 1 0.0 3.0 24 37
+ 0.99344 3 2 ack 40 ------- 1 3.0 0.0 24 67
- 0.99344 3 2 ack 40 ------- 1 3.0 0.0 24 67
r 0.99512 0 2 tcp 1040 ------- 1 0.0 3.0 42 66
+ 0.99512 2 3 tcp 1040 ------- 1 0.0 3.0 42 66
r 0.9976 2 0 ack 40 ------- 1 3.0 0.0 23 65
+ 0.9976 0 2 tcp 1040 ------- 1 0.0 3.0 43 68
- 0.9976 0 2 tcp 1040 ------- 1 0.0 3.0 43 68
- 1.00008 2 3 tcp 1040 ------- 1 0.0 3.0 26 40
r 1.00408 3 2 ack 40 ------- 1 3.0 0.0 24 67
+ 1.00408 2 0 ack 40 ------- 1 3.0 0.0 24 67
- 1.00408 2 0 ack 40 ------- 1 3.0 0.0 24 67
r 1.01008 2 3 tcp 1040 ------- 1 0.0 3.0 25 39
+ 1.01008 3 2 ack 40 ------- 1 3.0 0.0 25 69
- 1.01008 3 2 ack 40 ------- 1 3.0 0.0 25 69
r 1.01176 0 2 tcp 1040 ------- 1 0.0 3.0 43 68
+ 1.01176 2 3 tcp 1040 ------- 1 0.0 3.0 43 68
r 1.01424 2 0 ack 40 ------- 1 3.0 0.0 24 67
+ 1.01424 0 2 tcp 1040 ------- 1 0.0 3.0 44 70
- 1.01424 0 2 tcp 1040 ------- 1 0.0 3.0 44 70
- 1.01672 2 3 tcp 1040 ------- 1 0.0 3.0 27 42
r 1.02072 3 2 ack 40 ------- 1 3.0 0.0 25 69
+ 1.02072 2 0 ack 40 ------- 1 3.0 0.0 25 69
- 1.02072 2 0 ack 40 ------- 1 3.0 0.0 25 69
r 1.02672 2 3 tcp 1040 ------- 1 0.0 3.0 26 40
+ 1.02672 3 2 ack 40 ------- 1 3.0 0.0 26 71
- 1.02672 3 2 ack 40 ------- 1 3.0 0.0 26 71
r 1.0284 0 2 tcp 1040 ------- 1 0.0 3.0 44 70
+ 1.0284 2 3 tcp 1040 ------- 1 0.0 3.0 44 70
r 1.03088 2 0 ack 40 ------- 1 3.0 0.0 25 69
+ 1.03088 0 2 tcp 1040 ------- 1 0.0 3.0 45 72
- 1.03088 0 2 tcp 1040 ------- 1 0.0 3.0 45 72
- 1.03336 2 3 tcp 1040 ------- 1 0.0 3.0 28 43
r 1.03736 3 2 ack 40 ------- 1 3.0 0.0 26 71
+ 1.03736 2 0 ack 40 ------- 1 3.0 0.0 26 71
- 1.03736 2 0 ack 40 ------- 1 3.0 0.0 26 71
r 1.04336 2 3 tcp 1040 ------- 1 0.0 3.0 27 42
+ 1.04336 3 2 ack 40 ------- 1 3.0 0.0 27 73
- 1.04336 3 2 ack 40 ------- 1 3.0 0.0 27 73
r 1.04504 0 2 tcp 1040 ------- 1 0.0 3.0 45 72
+ 1.04504 2 3 tcp 1040 ------- 1 0.0 3.0 45 72
r 1.04752 2 0 ack 40 ------- 1 3.0 0.0 26 71
+ 1.04752 0 2 tcp 1040 ------- 1 0.0 3.0 46 74
- 1.04752 0 2 tcp 1040 ------- 1 0.0 3.0 46 74
- 1.05 2 3 tcp 1040 ------- 1 0.0 3.0 29 45
r 1.054 3 2 ack 40 ------- 1 3.0 0.0 27 73
+ 1.054 2 0 ack 40 ------- 1 3.0 0.0 27 73
- 1.054 2 0 ack 40 ------- 1 3.0 0.0 27 73
r 1.06 2 3 tcp 1040 ------- 1 0.0 3.0 28 43
+ 1.06 3 2 ack 40 ------- 1 3.0 0.0 28 75
- 1.06 3 2 ack 40 ------- 1 3.0 0.0 28 75
r 1.06168 0 2 tcp 1040 ------- 1 0.0 3.0 46 74
+ 1.06168 2 3 tcp 1040 ------- 1 0.0 3.0 46 74
r 1.06416 2 0 ack 40 ------- 1 3.0 0.0 27 73
+ 1.06416 0 2 tcp 1040 ------- 1 0.0 3.0 47 76
- 1.06416 0 2 tcp 1040 ------- 1 0.0 3.0 47 76
- 1.06664 2 3 tcp 1040 ------- 1 0.0 3.0 30 46
r 1.07064 3 2 ack 40 ------- 1 3.0 0.0 28 75
+ 1.07064 2 0 ack 40 ------- 1 3.0 0.0 28 75
- 1.07064 2 0 ack 40 ------- 1 3.0 0.0 28 75
r 1.07664 2 3 tcp 1040 ------- 1 0.0 3.0 29 45
+ 1.07664 3 2 ack 40 ------- 1 3.0 0.0 29 77
- 1.07664 3 2 ack 40 ------- 1 3.0 0.0 29 77
r 1.07832 0 2 tcp 1040 ------- 1 0.0 3.0 47 76
+ 1.07832 2 3 tcp 1040 ------- 1 0.0 3.0 47 76
r 1.0808 2 0 ack 40 ------- 1 3.0 0.0 28 75
+ 1.0808 0 2 tcp 1040 ------- 1 0.0 3.0 48 78
- 1.0808 0 2 tcp 1040 ------- 1 0.0 3.0 48 78
- 1.08328 2 3 tcp 1040 ------- 1 0.0 3.0 31 48
r 1.08728 3 2 ack 40 ------- 1 3.0 0.0 29 77
+ 1.08728 2 0 ack 40 ------- 1 3.0 0.0 29 77
- 1.08728 2 0 ack 40 ------- 1 3.0 0.0 29 77
r 1.09328 2 3 tcp 1040 ------- 1 0.0 3.0 30 46
+ 1.09328 3 2 ack 40 ------- 1 3.0 0.0 30 79
- 1.09328 3 2 ack 40 ------- 1 3.0 0.0 30 79
r 1.09496 0 2 tcp 1040 ------- 1 0.0 3.0 48 78
+ 1.09496 2 3 tcp 1040 ------- 1 0.0 3.0 48 78
r 1.09744 2 0 ack 40 ------- 1 3.0 0.0 29 77
+ 1.09744 0 2 tcp 1040 ------- 1 0.0 3.0 49 80
- 1.09744 0 2 tcp 1040 ------- 1 0.0 3.0 49 80
- 1.09992 2 3 tcp 1040 ------- 1 0.0 3.0 32 49
r 1.10392 3 2 ack 40 ------- 1 3.0 0.0 30 79
+ 1.10392 2 0 ack 40 ------- 1 3.0 0.0 30 79
- 1.10392 2 0 ack 40 ------- 1 3.0 0.0 30 79
r 1.10992 2 3 tcp 1040 ------- 1 0.0 3.0 31 48
+ 1.10992 3 2 ack 40 ------- 1 3.0 0.0 31 81
- 1.10992 3 2 ack 40 ------- 1 3.0 0.0 31 81
r 1.1116 0 2 tcp 1040 ------- 1 0.0 3.0 49 80
+ 1.1116 2 3 tcp 1040 ------- 1 0.0 3.0 49 80
r 1.11408 2 0 ack 40 ------- 1 3.0 0.0 30 79
+ 1.11408 0 2 tcp 1040 ------- 1 0.0 3.0 50 82
- 1.11408 0 2 tcp 1040 ------- 1 0.0 3.0 50 82
- 1.11656 2 3 tcp 1040 ------- 1 0.0 3.0 33 51
r 1.12056 3 2 ack 40 ------- 1 3.0 0.0 31 81
+ 1.12056 2 0 ack 40 ------- 1 3.0 0.0 31 81
- 1.12056 2 0 ack 40 ------- 1 3.0 0.0 31 81
r 1.12656 2 3 tcp 1040 ------- 1 0.0 3.0 32 49
+ 1.12656 3 2 ack 40 ------- 1 3.0 0.0 32 83
- 1.12656 3 2 ack 40 ------- 1 3.0 0.0 32 83
r 1.12824 0 2 tcp 1040 ------- 1 0.0 3.0 50 82
+ 1.12824 2 3 tcp 1040 ------- 1 0.0 3.0 50 82
r 1.13072 2 0 ack 40 ------- 1 3.0 0.0 31 81
+ 1.13072 0 2 tcp 1040 ------- 1 0.0 3.0 51 84
- 1.13072 0 2 tcp 1040 ------- 1 0.0 3.0 51 84
- 1.1332 2 3 tcp 1040 ------- 1 0.0 3.0 34 52
r 1.1372 3 2 ack 40 ------- 1 3.0 0.0 32 83
+ 1.1372 2 0 ack 40 ------- 1 3.0 0.0 32 83
- 1.1372 2 0 ack 40 ------- 1 3.0 0.0 32 83
r 1.1432 2 3 tcp 1040 ------- 1 0.0 3.0 33 51
+ 1.1432 3 2 ack 40 ------- 1 3.0 0.0 33 85
- 1.1432 3 2 ack 40 ------- 1 3.0 0.0 33 85
r 1.14488 0 2 tcp 1040 ------- 1 0.0 3.0 51 84
+ 1.14488 2 3 tcp 1040 ------- 1 0.0 3.0 51 84
r 1.14736 2 0 ack 40 ------- 1 3.0 0.0 32 83
+ 1.14736 0 2 tcp 1040 ------- 1 0.0 3.0 52 86
- 1.14736 0 2 tcp 1040 ------- 1 0.0 3.0 52 86
- 1.14984 2 3 tcp 1040 ------- 1 0.0 3.0 35 54
r 1.15384 3 2 ack 40 ------- 1 3.0 0.0 33 85
+ 1.15384 2 0 ack 40 ------- 1 3.0 0.0 33 85
- 1.15384 2 0 ack 40 ------- 1 3.0 0.0 33 85
r 1.15984 2 3 tcp 1040 ------- 1 0.0 3.0 34 52
+ 1.15984 3 2 ack 40 ------- 1 3.0 0.0 34 87
- 1.15984 3 2 ack 40 ------- 1 3.0 0.0 34 87
r 1.16152 0 2 tcp 1040 ------- 1 0.0 3.0 52 86
+ 1.16152 2 3 tcp 1040 ------- 1 0.0 3.0 52 86
r 1.164 2 0 ack 40 ------- 1 3.0 0.0 33 85
+ 1.164 0 2 tcp 1040 ------- 1 0.0 3.0 53 88
- 1.164 0 2 tcp 1040 ------- 1 0.0 3.0 53 88
- 1.16648 2 3 tcp 1040 ------- 1 0.0 3.0 36 55
r 1.17048 3 2 ack 40 ------- 1 3.0 0.0 34 87
+ 1.17048 2 0 ack 40 ------- 1 3.0 0.0 34 87
- 1.17048 2 0 ack 40 ------- 1 3.0 0.0 34 87
r 1.17648 2 3 tcp 1040 ------- 1 0.0 3.0 35 54
+ 1.17648 3 2 ack 40 ------- 1 3.0 0.0 35 89
- 1.17648 3 2 ack 40 ------- 1 3.0 0.0 35 89
r 1.17816 0 2 tcp 1040 ------- 1 0.0 3.0 53 88
+ 1.17816 2 3 tcp 1040 ------- 1 0.0 3.0 53 88
r 1.18064 2 0 ack 40 ------- 1 3.0 0.0 34 87
+ 1.18064 0 2 tcp 1040 ------- 1 0.0 3.0 54 90
- 1.18064 0 2 tcp 1040 ------- 1 0.0 3.0 54 90
- 1.18312 2 3 tcp 1040 ------- 1 0.0 3.0 37 57
r 1.18712 3 2 ack 40 ------- 1 3.0 0.0 35 89
+ 1.18712 2 0 ack 40 ------- 1 3.0 0.0 35 89
- 1.18712 2 0 ack 40 ------- 1 3.0 0.0 35 89
r 1.19312 2 3 tcp 1040 ------- 1 0.0 3.0 36 55
+ 1.19312 3 2 ack 40 ------- 1 3.0 0.0 36 91
- 1.19312 3 2 ack 40 ------- 1 3.0 0.0 36 91
r 1.1948 0 2 tcp 1040 ------- 1 0.0 3.0 54 90
+ 1.1948 2 3 tcp 1040 ------- 1 0.0 3.0 54 90
r 1.19728 2 0 ack 40 ------- 1 3.0 0.0 35 89
+ 1.19728 0 2 tcp 1040 ------- 1 0.0 3.0 55 92
- 1.19728 0 2 tcp 1040 ------- 1 0.0 3.0 55 92
- 1.19976 2 3 tcp 1040 ------- 1 0.0 3.0 38 58
r 1.20376 3 2 ack 40 ------- 1 3.0 0.0 36 91
+ 1.20376 2 0 ack 40 ------- 1 3.0 0.0 36 91
- 1.20376 2 0 ack 40 ------- 1 3.0 0.0 36 91
r 1.20976 2 3 tcp 1040 ------- 1 0.0 3.0 37 57
+ 1.20976 3 2 ack 40 ------- 1 3.0 0.0 37 93
- 1.20976 3 2 ack 40 ------- 1 3.0 0.0 37 93
r 1.21144 0 2 tcp 1040 ------- 1 0.0 3.0 55 92
+ 1.21144 2 3 tcp 1040 ------- 1 0.0 3.0 55 92
r 1.21392 2 0 ack 40 ------- 1 3.0 0.0 36 91
+ 1.21392 0 2 tcp 1040 ------- 1 0.0 3.0 56 94
- 1.21392 0 2 tcp 1040 ------- 1 0.0 3.0 56 94
- 1.2164 2 3 tcp 1040 ------- 1 0.0 3.0 39 60
r 1.2204 3 2 ack 40 ------- 1 3.0 0.0 37 93
+ 1.2204 2 0 ack 40 ------- 1 3.0 0.0 37 93
- 1.2204 2 0 ack 40 ------- 1 3.0 0.0 37 93
r 1.2264 2 3 tcp 1040 ------- 1 0.0 3.0 38 58
+ 1.2264 3 2 ack 40 ------- 1 3.0 0.0 38 95
- 1.2264 3 2 ack 40 ------- 1 3.0 0.0 38 95
r 1.22808 0 2 tcp 1040 ------- 1 0.0 3.0 56 94
+ 1.22808 2 3 tcp 1040 ------- 1 0.0 3.0 56 94
r 1.23056 2 0 ack 40 ------- 1 3.0 0.0 37 93
+ 1.23056 0 2 tcp 1040 ------- 1 0.0 3.0 57 96
- 1.23056 0 2 tcp 1040 ------- 1 0.0 3.0 57 96
- 1.23304 2 3 tcp 1040 ------- 1 0.0 3.0 40 62
r 1.23704 3 2 ack 40 ------- 1 3.0 0.0 38 95
+ 1.23704 2 0 ack 40 ------- 1 3.0 0.0 38 95
- 1.23704 2 0 ack 40 ------- 1 3.0 0.0 38 95
r 1.24304 2 3 tcp 1040 ------- 1 0.0 3.0 39 60
+ 1.24304 3 2 ack 40 ------- 1 3.0 0.0 39 97
- 1.24304 3 2 ack 40 ------- 1 3.0 0.0 39 97
r 1.24472 0 2 tcp 1040 ------- 1 0.0 3.0 57 96
+ 1.24472 2 3 tcp 1040 ------- 1 0.0 3.0 57 96
r 1.2472 2 0 ack 40 ------- 1 3.0 0.0 38 95
+ 1.2472 0 2 tcp 1040 ------- 1 0.0 3.0 58 98
- 1.2472 0 2 tcp 1040 ------- 1 0.0 3.0 58 98
- 1.24968 2 3 tcp 1040 ------- 1 0.0 3.0 41 64
r 1.25368 3 2 ack 40 ------- 1 3.0 0.0 39 97
+ 1.25368 2 0 ack 40 ------- 1 3.0 0.0 39 97
- 1.25368 2 0 ack 40 ------- 1 3.0 0.0 39 97
r 1.25968 2 3 tcp 1040 ------- 1 0.0 3.0 40 62
+ 1.25968 3 2 ack 40 ------- 1 3.0 0.0 40 99
- 1.25968 3 2 ack 40 ------- 1 3.0 0.0 40 99
r 1.26136 0 2 tcp 1040 ------- 1 0.0 3.0 58 98
+ 1.26136 2 3 tcp 1040 ------- 1 0.0 3.0 58 98
r 1.26384 2 0 ack 40 ------- 1 3.0 0.0 39 97
+ 1.26384 0 2 tcp 1040 ------- 1 0.0 3.0 59 100
- 1.26384 0 2 tcp 1040 ------- 1 0.0 3.0 59 100
- 1.26632 2 3 tcp 1040 ------- 1 0.0 3.0 42 66
r 1.27032 3 2 ack 40 ------- 1 3.0 0.0 40 99
+ 1.27032 2 0 ack 40 ------- 1 3.0 0.0 40 99
- 1.27032 2 0 ack 40 ------- 1 3.0 0.0 40 99
r 1.27632 2 3 tcp 1040 ------- 1 0.0 3.0 41 64
+ 1.27632 3 2 ack 40 ------- 1 3.0 0.0 41 101
- 1.27632 3 2 ack 40 ------- 1 3.0 0.0 41 101
r 1.278 0 2 tcp 1040 ------- 1 0.0 3.0 59 100
+ 1.278 2 3 tcp 1040 ------- 1 0.0 3.0 59 100
r 1.28048 2 0 ack 40 ------- 1 3.0 0.0 40 99
+ 1.28048 0 2 tcp 1040 ------- 1 0.0 3.0 60 102
- 1.28048 0 2 tcp 1040 ------- 1 0.0 3.0 60 102
- 1.28296 2 3 tcp 1040 ------- 1 0.0 3.0 43 68
r 1.28696 3 2 ack 40 ------- 1 3.0 0.0 41 101
+ 1.28696 2 0 ack 40 ------- 1 3.0 0.0 41 101
- 1.28696 2 0 ack 40 ------- 1 3.0 0.0 41 101
r 1.29296 2 3 tcp 1040 ------- 1 0.0 3.0 42 66
+ 1.29296 3 2 ack 40 ------- 1 3.0 0.0 42 103
- 1.29296 3 2 ack 40 ------- 1 3.0 0.0 42 103
r 1.29464 0 2 tcp 1040 ------- 1 0.0 3.0 60 102
+ 1.29464 2 3 tcp 1040 ------- 1 0.0 3.0 60 102
r 1.29712 2 0 ack 40 ------- 1 3.0 0.0 41 101
+ 1.29712 0 2 tcp 1040 ------- 1 0.0 3.0 61 104
- 1.29712 0 2 tcp 1040 ------- 1 0.0 3.0 61 104
- 1.2996 2 3 tcp 1040 ------- 1 0.0 3.0 44 70
r 1.3036 3 2 ack 40 ------- 1 3.0 0.0 42 103
+ 1.3036 2 0 ack 40 ------- 1 3.0 0.0 42 103
- 1.3036 2 0 ack 40 ------- 1 3.0 0.0 42 103
r 1.3096 2 3 tcp 1040 ------- 1 0.0 3.0 43 68
+ 1.3096 3 2 ack 40 ------- 1 3.0 0.0 43 105
- 1.3096 3 2 ack 40 ------- 1 3.0 0.0 43 105
r 1.31128 0 2 tcp 1040 ------- 1 0.0 3.0 61 104
+ 1.31128 2 3 tcp 1040 ------- 1 0.0 3.0 61 104
r 1.31376 2 0 ack 40 ------- 1 3.0 0.0 42 103
+ 1.31376 0 2 tcp 1040 ------- 1 0.0 3.0 62 106
- 1.31376 0 2 tcp 1040 ------- 1 0.0 3.0 62 106
- 1.31624 2 3 tcp 1040 ------- 1 0.0 3.0 45 72
+ 1.318317 1 2 tcp 40 ------- 2 1.0 3.1 0 107
- 1.318317 1 2 tcp 40 ------- 2 1.0 3.1 0 107
r 1.32024 3 2 ack 40 ------- 1 3.0 0.0 43 105
+ 1.32024 2 0 ack 40 ------- 1 3.0 0.0 43 105
- 1.32024 2 0 ack 40 ------- 1 3.0 0.0 43 105
r 1.32624 2 3 tcp 1040 ------- 1 0.0 3.0 44 70
+ 1.32624 3 2 ack 40 ------- 1 3.0 0.0 44 108
- 1.32624 3 2 ack 40 ------- 1 3.0 0.0 44 108
r 1.32792 0 2 tcp 1040 ------- 1 0.0 3.0 62 106
+ 1.32792 2 3 tcp 1040 ------- 1 0.0 3.0 62 106
r 1.328477 1 2 tcp 40 ------- 2 1.0 3.1 0 107
+ 1.328477 2 3 tcp 40 ------- 2 1.0 3.1 0 107
r 1.3304 2 0 ack 40 ------- 1 3.0 0.0 43 105
+ 1.3304 0 2 tcp 1040 ------- 1 0.0 3.0 63 109
- 1.3304 0 2 tcp 1040 ------- 1 0.0 3.0 63 109
- 1.33288 2 3 tcp 1040 ------- 1 0.0 3.0 46 74
r 1.33688 3 2 ack 40 ------- 1 3.0 0.0 44 108
+ 1.33688 2 0 ack 40 ------- 1 3.0 0.0 44 108
- 1.33688 2 0 ack 40 ------- 1 3.0 0.0 44 108
r 1.34288 2 3 tcp 1040 ------- 1 0.0 3.0 45 72
+ 1.34288 3 2 ack 40 ------- 1 3.0 0.0 45 110
- 1.34288 3 2 ack 40 ------- 1 3.0 0.0 45 110
r 1.34456 0 2 tcp 1040 ------- 1 0.0 3.0 63 109
+ 1.34456 2 3 tcp 1040 ------- 1 0.0 3.0 63 109
r 1.34704 2 0 ack 40 ------- 1 3.0 0.0 44 108
+ 1.34704 0 2 tcp 1040 ------- 1 0.0 3.0 64 111
- 1.34704 0 2 tcp 1040 ------- 1 0.0 3.0 64 111
- 1.34952 2 3 tcp 1040 ------- 1 0.0 3.0 47 76
r 1.35352 3 2 ack 40 ------- 1 3.0 0.0 45 110
+ 1.35352 2 0 ack 40 ------- 1 3.0 0.0 45 110
- 1.35352 2 0 ack 40 ------- 1 3.0 0.0 45 110
r 1.35952 2 3 tcp 1040 ------- 1 0.0 3.0 46 74
+ 1.35952 3 2 ack 40 ------- 1 3.0 0.0 46 112
- 1.35952 3 2 ack 40 ------- 1 3.0 0.0 46 112
r 1.3612 0 2 tcp 1040 ------- 1 0.0 3.0 64 111
+ 1.3612 2 3 tcp 1040 ------- 1 0.0 3.0 64 111
r 1.36368 2 0 ack 40 ------- 1 3.0 0.0 45 110
+ 1.36368 0 2 tcp 1040 ------- 1 0.0 3.0 65 113
- 1.36368 0 2 tcp 1040 ------- 1 0.0 3.0 65 113
- 1.36616 2 3 tcp 1040 ------- 1 0.0 3.0 48 78
r 1.37016 3 2 ack 40 ------- 1 3.0 0.0 46 112
+ 1.37016 2 0 ack 40 ------- 1 3.0 0.0 46 112
- 1.37016 2 0 ack 40 ------- 1 3.0 0.0 46 112
r 1.37616 2 3 tcp 1040 ------- 1 0.0 3.0 47 76
+ 1.37616 3 2 ack 40 ------- 1 3.0 0.0 47 114
- 1.37616 3 2 ack 40 ------- 1 3.0 0.0 47 114
r 1.37784 0 2 tcp 1040 ------- 1 0.0 3.0 65 113
+ 1.37784 2 3 tcp 1040 ------- 1 0.0 3.0 65 113
r 1.38032 2 0 ack 40 ------- 1 3.0 0.0 46 112
+ 1.38032 0 2 tcp 1040 ------- 1 0.0 3.0 66 115
- 1.38032 0 2 tcp 1040 ------- 1 0.0 3.0 66 115
- 1.3828 2 3 tcp 1040 ------- 1 0.0 3.0 49 80
r 1.3868 3 2 ack 40 ------- 1 3.0 0.0 47 114
+ 1.3868 2 0 ack 40 ------- 1 3.0 0.0 47 114
- 1.3868 2 0 ack 40 ------- 1 3.0 0.0 47 114
r 1.3928 2 3 tcp 1040 ------- 1 0.0 3.0 48 78
+ 1.3928 3 2 ack 40 ------- 1 3.0 0.0 48 116