V -t * -v 1.0a5 -a 0
A -t * -n 1 -p 0 -o 0x7fffffff -c 30 -a 1
A -t * -h 1 -m 1073741823 -s 0
c -t * -i 1 -n Blue
c -t * -i 2 -n Red
n -t * -a 4 -s 4 -S UP -v circle -c Blue -i Blue
n -t * -a 0 -s 0 -S UP -v circle -c Blue -i Blue
n -t * -a 5 -s 5 -S UP -v box -c Red -i Red
n -t * -a 1 -s 1 -S UP -v box -c Red -i Red
n -t * -a 2 -s 2 -S UP -v circle -c black -i black
n -t * -a 3 -s 3 -S UP -v circle -c black -i black
l -t * -s 0 -d 2 -S UP -r 2000000 -D 0.01 -c black -o right-down
l -t * -s 1 -d 2 -S UP -r 2000000 -D 0.01 -c black -o right-up
l -t * -s 2 -d 3 -S UP -r 300000 -D 0.10000000000000001 -c black -o right
X -t * -n 6 -r 0.5Mb -D 40ms -o left
L -t * -s 6 -d 3 -o up
L -t * -s 6 -d 4 -o down
L -t * -s 6 -d 5 -o up
n -t 0 -s 0 -S DLABEL -l "TCP_Traffic" -L ""
n -t 0 -s 1 -S DLABEL -l "UDP_Traffic" -L ""
+ -t 0.3 -s 0 -d 2 -p tcp -e 40 -c 1 -i 3 -a 1 -x {0.0 4.0 0 ------- null}
- -t 0.3 -s 0 -d 2 -p tcp -e 40 -c 1 -i 3 -a 1 -x {0.0 4.0 0 ------- null}
h -t 0.3 -s 0 -d 2 -p tcp -e 40 -c 1 -i 3 -a 1 -x {0.0 4.0 -1 ------- null}
r -t 0.31016 -s 0 -d 2 -p tcp -e 40 -c 1 -i 3 -a 1 -x {0.0 4.0 0 ------- null}
+ -t 0.31016 -s 2 -d 3 -p tcp -e 40 -c 1 -i 3 -a 1 -x {0.0 4.0 0 ------- null}
- -t 0.31016 -s 2 -d 3 -p tcp -e 40 -c 1 -i 3 -a 1 -x {0.0 4.0 0 ------- null}
h -t 0.31016 -s 2 -d 3 -p tcp -e 40 -c 1 -i 3 -a 1 -x {0.0 4.0 -1 ------- null}
r -t 0.411226666666667 -s 2 -d 3 -p tcp -e 40 -c 1 -i 3 -a 1 -x {0.0 4.0 0 ------- null}
h -t 0.411226666666667 -s 3 -d 6 -p tcp -e 40 -c 1 -i 3 -a 1 -x {0.0 4.0 0 ------- null}
+ -t 0.451226666666667 -s 3 -d 6 -p tcp -e 40 -c 1 -i 3 -a 1 -x {0.0 4.0 0 ------- null}
- -t 0.451226666666667 -s 3 -d 6 -p tcp -e 40 -c 1 -i 3 -a 1 -x {0.0 4.0 0 ------- null}
h -t 0.451226666666667 -s 3 -d 6 -p tcp -e 40 -c 1 -i 3 -a 1 -x {0.0 4.0 -1 ------- null}
d -t 0.451230666666667 -s 5 -d 6 -p tcp -e 40 -c 1 -i 3 -a 1 -x {0.0 4.0 0 ------- null}
r -t 0.491230666666667 -s 6 -d 4 -p tcp -e 40 -c 1 -i 3 -a 1 -x {0.0 4.0 0 ------- null}
h -t 0.491230666666667 -s 4 -d 6 -p ack -e 40 -c 1 -i 10 -a 1 -x {4.0 0.0 0 ------- null}
+ -t 0.531230666666667 -s 4 -d 6 -p ack -e 40 -c 1 -i 10 -a 1 -x {4.0 0.0 0 ------- null}
- -t 0.531230666666667 -s 4 -d 6 -p ack -e 40 -c 1 -i 10 -a 1 -x {4.0 0.0 0 ------- null}
h -t 0.531230666666667 -s 4 -d 6 -p ack -e 40 -c 1 -i 10 -a 1 -x {4.0 0.0 -1 ------- null}
d -t 0.531234666666667 -s 5 -d 6 -p ack -e 40 -c 1 -i 10 -a 1 -x {4.0 0.0 0 ------- null}
r -t 0.571234666666667 -s 6 -d 3 -p ack -e 40 -c 1 -i 10 -a 1 -x {4.0 0.0 0 ------- null}
+ -t 0.571234666666667 -s 3 -d 2 -p ack -e 40 -c 1 -i 10 -a 1 -x {4.0 0.0 0 ------- null}
- -t 0.571234666666667 -s 3 -d 2 -p ack -e 40 -c 1 -i 10 -a 1 -x {4.0 0.0 0 ------- null}
h -t 0.571234666666667 -s 3 -d 2 -p ack -e 40 -c 1 -i 10 -a 1 -x {4.0 0.0 -1 ------- null}
r -t 0.672301333333333 -s 3 -d 2 -p ack -e 40 -c 1 -i 10 -a 1 -x {4.0 0.0 0 ------- null}
+ -t 0.672301333333333 -s 2 -d 0 -p ack -e 40 -c 1 -i 10 -a 1 -x {4.0 0.0 0 ------- null}
- -t 0.672301333333333 -s 2 -d 0 -p ack -e 40 -c 1 -i 10 -a 1 -x {4.0 0.0 0 ------- null}
h -t 0.672301333333333 -s 2 -d 0 -p ack -e 40 -c 1 -i 10 -a 1 -x {4.0 0.0 -1 ------- null}
r -t 0.682461333333333 -s 2 -d 0 -p ack -e 40 -c 1 -i 10 -a 1 -x {4.0 0.0 0 ------- null}
+ -t 0.682461333333333 -s 0 -d 2 -p tcp -e 1040 -c 1 -i 17 -a 1 -x {0.0 4.0 1 ------- null}
- -t 0.682461333333333 -s 0 -d 2 -p tcp -e 1040 -c 1 -i 17 -a 1 -x {0.0 4.0 1 ------- null}
h -t 0.682461333333333 -s 0 -d 2 -p tcp -e 1040 -c 1 -i 17 -a 1 -x {0.0 4.0 -1 ------- null}
+ -t 0.682461333333333 -s 0 -d 2 -p tcp -e 1040 -c 1 -i 18 -a 1 -x {0.0 4.0 2 ------- null}
- -t 0.686621333333333 -s 0 -d 2 -p tcp -e 1040 -c 1 -i 18 -a 1 -x {0.0 4.0 2 ------- null}
h -t 0.686621333333333 -s 0 -d 2 -p tcp -e 1040 -c 1 -i 18 -a 1 -x {0.0 4.0 -1 ------- null}
r -t 0.696621333333333 -s 0 -d 2 -p tcp -e 1040 -c 1 -i 17 -a 1 -x {0.0 4.0 1 ------- null}
+ -t 0.696621333333333 -s 2 -d 3 -p tcp -e 1040 -c 1 -i 17 -a 1 -x {0.0 4.0 1 ------- null}
- -t 0.696621333333333 -s 2 -d 3 -p tcp -e 1040 -c 1 -i 17 -a 1 -x {0.0 4.0 1 ------- null}
h -t 0.696621333333333 -s 2 -d 3 -p tcp -e 1040 -c 1 -i 17 -a 1 -x {0.0 4.0 -1 ------- null}
r -t 0.700781333333333 -s 0 -d 2 -p tcp -e 1040 -c 1 -i 18 -a 1 -x {0.0 4.0 2 ------- null}
+ -t 0.700781333333333 -s 2 -d 3 -p tcp -e 1040 -c 1 -i 18 -a 1 -x {0.0 4.0 2 ------- null}
- -t 0.724354666666666 -s 2 -d 3 -p tcp -e 1040 -c 1 -i 18 -a 1 -x {0.0 4.0 2 ------- null}
h -t 0.724354666666666 -s 2 -d 3 -p tcp -e 1040 -c 1 -i 18 -a 1 -x {0.0 4.0 -1 ------- null}
r -t 0.824354666666667 -s 2 -d 3 -p tcp -e 1040 -c 1 -i 17 -a 1 -x {0.0 4.0 1 ------- null}
h -t 0.824354666666667 -s 3 -d 6 -p tcp -e 1040 -c 1 -i 17 -a 1 -x {0.0 4.0 1 ------- null}
r -t 0.852088 -s 2 -d 3 -p tcp -e 1040 -c 1 -i 18 -a 1 -x {0.0 4.0 2 ------- null}
h -t 0.852088 -s 3 -d 6 -p tcp -e 1040 -c 1 -i 18 -a 1 -x {0.0 4.0 2 ------- null}
+ -t 0.864354666666667 -s 3 -d 6 -p tcp -e 1040 -c 1 -i 17 -a 1 -x {0.0 4.0 1 ------- null}
- -t 0.864354666666667 -s 3 -d 6 -p tcp -e 1040 -c 1 -i 17 -a 1 -x {0.0 4.0 1 ------- null}
h -t 0.864354666666667 -s 3 -d 6 -p tcp -e 1040 -c 1 -i 17 -a 1 -x {0.0 4.0 -1 ------- null}
d -t 0.864358666666667 -s 5 -d 6 -p tcp -e 1040 -c 1 -i 17 -a 1 -x {0.0 4.0 1 ------- null}
+ -t 0.892088 -s 3 -d 6 -p tcp -e 1040 -c 1 -i 18 -a 1 -x {0.0 4.0 2 ------- null}
- -t 0.892088 -s 3 -d 6 -p tcp -e 1040 -c 1 -i 18 -a 1 -x {0.0 4.0 2 ------- null}
h -t 0.892088 -s 3 -d 6 -p tcp -e 1040 -c 1 -i 18 -a 1 -x {0.0 4.0 -1 ------- null}
d -t 0.892092 -s 5 -d 6 -p tcp -e 1040 -c 1 -i 18 -a 1 -x {0.0 4.0 2 ------- null}
r -t 0.904358666666667 -s 6 -d 4 -p tcp -e 1040 -c 1 -i 17 -a 1 -x {0.0 4.0 1 ------- null}
h -t 0.904358666666667 -s 4 -d 6 -p ack -e 40 -c 1 -i 25 -a 1 -x {4.0 0.0 1 ------- null}
r -t 0.932092 -s 6 -d 4 -p tcp -e 1040 -c 1 -i 18 -a 1 -x {0.0 4.0 2 ------- null}
h -t 0.932092 -s 4 -d 6 -p ack -e 40 -c 1 -i 27 -a 1 -x {4.0 0.0 2 ------- null}
+ -t 0.944358666666667 -s 4 -d 6 -p ack -e 40 -c 1 -i 25 -a 1 -x {4.0 0.0 1 ------- null}
- -t 0.944358666666667 -s 4 -d 6 -p ack -e 40 -c 1 -i 25 -a 1 -x {4.0 0.0 1 ------- null}
h -t 0.944358666666667 -s 4 -d 6 -p ack -e 40 -c 1 -i 25 -a 1 -x {4.0 0.0 -1 ------- null}
d -t 0.944362666666667 -s 5 -d 6 -p ack -e 40 -c 1 -i 25 -a 1 -x {4.0 0.0 1 ------- null}
+ -t 0.972092 -s 4 -d 6 -p ack -e 40 -c 1 -i 27 -a 1 -x {4.0 0.0 2 ------- null}
- -t 0.972092 -s 4 -d 6 -p ack -e 40 -c 1 -i 27 -a 1 -x {4.0 0.0 2 ------- null}
h -t 0.972092 -s 4 -d 6 -p ack -e 40 -c 1 -i 27 -a 1 -x {4.0 0.0 -1 ------- null}
d -t 0.972096 -s 5 -d 6 -p ack -e 40 -c 1 -i 27 -a 1 -x {4.0 0.0 2 ------- null}
r -t 0.984362666666667 -s 6 -d 3 -p ack -e 40 -c 1 -i 25 -a 1 -x {4.0 0.0 1 ------- null}
+ -t 0.984362666666667 -s 3 -d 2 -p ack -e 40 -c 1 -i 25 -a 1 -x {4.0 0.0 1 ------- null}
- -t 0.984362666666667 -s 3 -d 2 -p ack -e 40 -c 1 -i 25 -a 1 -x {4.0 0.0 1 ------- null}
h -t 0.984362666666667 -s 3 -d 2 -p ack -e 40 -c 1 -i 25 -a 1 -x {4.0 0.0 -1 ------- null}
r -t 1.012096 -s 6 -d 3 -p ack -e 40 -c 1 -i 27 -a 1 -x {4.0 0.0 2 ------- null}
+ -t 1.012096 -s 3 -d 2 -p ack -e 40 -c 1 -i 27 -a 1 -x {4.0 0.0 2 ------- null}
- -t 1.012096 -s 3 -d 2 -p ack -e 40 -c 1 -i 27 -a 1 -x {4.0 0.0 2 ------- null}
h -t 1.012096 -s 3 -d 2 -p ack -e 40 -c 1 -i 27 -a 1 -x {4.0 0.0 -1 ------- null}
r -t 1.08542933333333 -s 3 -d 2 -p ack -e 40 -c 1 -i 25 -a 1 -x {4.0 0.0 1 ------- null}
+ -t 1.08542933333333 -s 2 -d 0 -p ack -e 40 -c 1 -i 25 -a 1 -x {4.0 0.0 1 ------- null}
- -t 1.08542933333333 -s 2 -d 0 -p ack -e 40 -c 1 -i 25 -a 1 -x {4.0 0.0 1 ------- null}
h -t 1.08542933333333 -s 2 -d 0 -p ack -e 40 -c 1 -i 25 -a 1 -x {4.0 0.0 -1 ------- null}
r -t 1.09558933333333 -s 2 -d 0 -p ack -e 40 -c 1 -i 25 -a 1 -x {4.0 0.0 1 ------- null}
+ -t 1.09558933333333 -s 0 -d 2 -p tcp -e 1040 -c 1 -i 33 -a 1 -x {0.0 4.0 3 ------- null}
- -t 1.09558933333333 -s 0 -d 2 -p tcp -e 1040 -c 1 -i 33 -a 1 -x {0.0 4.0 3 ------- null}
h -t 1.09558933333333 -s 0 -d 2 -p tcp -e 1040 -c 1 -i 33 -a 1 -x {0.0 4.0 -1 ------- null}
+ -t 1.09558933333333 -s 0 -d 2 -p tcp -e 1040 -c 1 -i 34 -a 1 -x {0.0 4.0 4 ------- null}
- -t 1.09974933333333 -s 0 -d 2 -p tcp -e 1040 -c 1 -i 34 -a 1 -x {0.0 4.0 4 ------- null}
h -t 1.09974933333333 -s 0 -d 2 -p tcp -e 1040 -c 1 -i 34 -a 1 -x {0.0 4.0 -1 ------- null}
r -t 1.10974933333333 -s 0 -d 2 -p tcp -e 1040 -c 1 -i 33 -a 1 -x {0.0 4.0 3 ------- null}
+ -t 1.10974933333333 -s 2 -d 3 -p tcp -e 1040 -c 1 -i 33 -a 1 -x {0.0 4.0 3 ------- null}
- -t 1.10974933333333 -s 2 -d 3 -p tcp -e 1040 -c 1 -i 33 -a 1 -x {0.0 4.0 3 ------- null}
h -t 1.10974933333333 -s 2 -d 3 -p tcp -e 1040 -c 1 -i 33 -a 1 -x {0.0 4.0 -1 ------- null}
r -t 1.11316266666667 -s 3 -d 2 -p ack -e 40 -c 1 -i 27 -a 1 -x {4.0 0.0 2 ------- null}
+ -t 1.11316266666667 -s 2 -d 0 -p ack -e 40 -c 1 -i 27 -a 1 -x {4.0 0.0 2 ------- null}
- -t 1.11316266666667 -s 2 -d 0 -p ack -e 40 -c 1 -i 27 -a 1 -x {4.0 0.0 2 ------- null}
h -t 1.11316266666667 -s 2 -d 0 -p ack -e 40 -c 1 -i 27 -a 1 -x {4.0 0.0 -1 ------- null}
r -t 1.11390933333333 -s 0 -d 2 -p tcp -e 1040 -c 1 -i 34 -a 1 -x {0.0 4.0 4 ------- null}
+ -t 1.11390933333333 -s 2 -d 3 -p tcp -e 1040 -c 1 -i 34 -a 1 -x {0.0 4.0 4 ------- null}
r -t 1.12332266666667 -s 2 -d 0 -p ack -e 40 -c 1 -i 27 -a 1 -x {4.0 0.0 2 ------- null}
+ -t 1.12332266666667 -s 0 -d 2 -p tcp -e 1040 -c 1 -i 36 -a 1 -x {0.0 4.0 5 ------- null}
- -t 1.12332266666667 -s 0 -d 2 -p tcp -e 1040 -c 1 -i 36 -a 1 -x {0.0 4.0 5 ------- null}
h -t 1.12332266666667 -s 0 -d 2 -p tcp -e 1040 -c 1 -i 36 -a 1 -x {0.0 4.0 -1 ------- null}
+ -t 1.12332266666667 -s 0 -d 2 -p tcp -e 1040 -c 1 -i 37 -a 1 -x {0.0 4.0 6 ------- null}
- -t 1.12748266666667 -s 0 -d 2 -p tcp -e 1040 -c 1 -i 37 -a 1 -x {0.0 4.0 6 ------- null}
h -t 1.12748266666667 -s 0 -d 2 -p tcp -e 1040 -c 1 -i 37 -a 1 -x {0.0 4.0 -1 ------- null}
r -t 1.13748266666667 -s 0 -d 2 -p tcp -e 1040 -c 1 -i 36 -a 1 -x {0.0 4.0 5 ------- null}
+ -t 1.13748266666667 -s 2 -d 3 -p tcp -e 1040 -c 1 -i 36 -a 1 -x {0.0 4.0 5 ------- null}
- -t 1.13748266666667 -s 2 -d 3 -p tcp -e 1040 -c 1 -i 34 -a 1 -x {0.0 4.0 4 ------- null}
h -t 1.13748266666667 -s 2 -d 3 -p tcp -e 1040 -c 1 -i 34 -a 1 -x {0.0 4.0 -1 ------- null}
r -t 1.14164266666667 -s 0 -d 2 -p tcp -e 1040 -c 1 -i 37 -a 1 -x {0.0 4.0 6 ------- null}
+ -t 1.14164266666667 -s 2 -d 3 -p tcp -e 1040 -c 1 -i 37 -a 1 -x {0.0 4.0 6 ------- null}
- -t 1.165216 -s 2 -d 3 -p tcp -e 1040 -c 1 -i 36 -a 1 -x {0.0 4.0 5 ------- null}
h -t 1.165216 -s 2 -d 3 -p tcp -e 1040 -c 1 -i 36 -a 1 -x {0.0 4.0 -1 ------- null}
- -t 1.19294933333333 -s 2 -d 3 -p tcp -e 1040 -c 1 -i 37 -a 1 -x {0.0 4.0 6 ------- null}
h -t 1.19294933333333 -s 2 -d 3 -p tcp -e 1040 -c 1 -i 37 -a 1 -x {0.0 4.0 -1 ------- null}
r -t 1.23748266666667 -s 2 -d 3 -p tcp -e 1040 -c 1 -i 33 -a 1 -x {0.0 4.0 3 ------- null}
h -t 1.23748266666667 -s 3 -d 6 -p tcp -e 1040 -c 1 -i 33 -a 1 -x {0.0 4.0 3 ------- null}
r -t 1.265216 -s 2 -d 3 -p tcp -e 1040 -c 1 -i 34 -a 1 -x {0.0 4.0 4 ------- null}
h -t 1.265216 -s 3 -d 6 -p tcp -e 1040 -c 1 -i 34 -a 1 -x {0.0 4.0 4 ------- null}
+ -t 1.27748266666667 -s 3 -d 6 -p tcp -e 1040 -c 1 -i 33 -a 1 -x {0.0 4.0 3 ------- null}
- -t 1.27748266666667 -s 3 -d 6 -p tcp -e 1040 -c 1 -i 33 -a 1 -x {0.0 4.0 3 ------- null}
h -t 1.27748266666667 -s 3 -d 6 -p tcp -e 1040 -c 1 -i 33 -a 1 -x {0.0 4.0 -1 ------- null}
d -t 1.27748666666667 -s 5 -d 6 -p tcp -e 1040 -c 1 -i 33 -a 1 -x {0.0 4.0 3 ------- null}
r -t 1.29294933333333 -s 2 -d 3 -p tcp -e 1040 -c 1 -i 36 -a 1 -x {0.0 4.0 5 ------- null}
h -t 1.29294933333333 -s 3 -d 6 -p tcp -e 1040 -c 1 -i 36 -a 1 -x {0.0 4.0 5 ------- null}
+ -t 1.305216 -s 3 -d 6 -p tcp -e 1040 -c 1 -i 34 -a 1 -x {0.0 4.0 4 ------- null}
- -t 1.305216 -s 3 -d 6 -p tcp -e 1040 -c 1 -i 34 -a 1 -x {0.0 4.0 4 ------- null}
h -t 1.305216 -s 3 -d 6 -p tcp -e 1040 -c 1 -i 34 -a 1 -x {0.0 4.0 -1 ------- null}
d -t 1.30522 -s 5 -d 6 -p tcp -e 1040 -c 1 -i 34 -a 1 -x {0.0 4.0 4 ------- null}
r -t 1.31748666666667 -s 6 -d 4 -p tcp -e 1040 -c 1 -i 33 -a 1 -x {0.0 4.0 3 ------- null}
h -t 1.31748666666667 -s 4 -d 6 -p ack -e 40 -c 1 -i 44 -a 1 -x {4.0 0.0 3 ------- null}
r -t 1.32068266666667 -s 2 -d 3 -p tcp -e 1040 -c 1 -i 37 -a 1 -x {0.0 4.0 6 ------- null}
h -t 1.32068266666667 -s 3 -d 6 -p tcp -e 1040 -c 1 -i 37 -a 1 -x {0.0 4.0 6 ------- null}
+ -t 1.33294933333333 -s 3 -d 6 -p tcp -e 1040 -c 1 -i 36 -a 1 -x {0.0 4.0 5 ------- null}
- -t 1.33294933333333 -s 3 -d 6 -p tcp -e 1040 -c 1 -i 36 -a 1 -x {0.0 4.0 5 ------- null}
h -t 1.33294933333333 -s 3 -d 6 -p tcp -e 1040 -c 1 -i 36 -a 1 -x {0.0 4.0 -1 ------- null}
d -t 1.33295333333333 -s 5 -d 6 -p tcp -e 1040 -c 1 -i 36 -a 1 -x {0.0 4.0 5 ------- null}
r -t 1.34522 -s 6 -d 4 -p tcp -e 1040 -c 1 -i 34 -a 1 -x {0.0 4.0 4 ------- null}
h -t 1.34522 -s 4 -d 6 -p ack -e 40 -c 1 -i 46 -a 1 -x {4.0 0.0 4 ------- null}
+ -t 1.35748666666667 -s 4 -d 6 -p ack -e 40 -c 1 -i 44 -a 1 -x {4.0 0.0 3 ------- null}
- -t 1.35748666666667 -s 4 -d 6 -p ack -e 40 -c 1 -i 44 -a 1 -x {4.0 0.0 3 ------- null}
h -t 1.35748666666667 -s 4 -d 6 -p ack -e 40 -c 1 -i 44 -a 1 -x {4.0 0.0 -1 ------- null}
d -t 1.35749066666667 -s 5 -d 6 -p ack -e 40 -c 1 -i 44 -a 1 -x {4.0 0.0 3 ------- null}
+ -t 1.36068266666667 -s 3 -d 6 -p tcp -e 1040 -c 1 -i 37 -a 1 -x {0.0 4.0 6 ------- null}
- -t 1.36068266666667 -s 3 -d 6 -p tcp -e 1040 -c 1 -i 37 -a 1 -x {0.0 4.0 6 ------- null}
h -t 1.36068266666667 -s 3 -d 6 -p tcp -e 1040 -c 1 -i 37 -a 1 -x {0.0 4.0 -1 ------- null}
d -t 1.36068666666667 -s 5 -d 6 -p tcp -e 1040 -c 1 -i 37 -a 1 -x {0.0 4.0 6 ------- null}
r -t 1.37295333333333 -s 6 -d 4 -p tcp -e 1040 -c 1 -i 36 -a 1 -x {0.0 4.0 5 ------- null}
h -t 1.37295333333333 -s 4 -d 6 -p ack -e 40 -c 1 -i 47 -a 1 -x {4.0 0.0 5 ------- null}
+ -t 1.38522 -s 4 -d 6 -p ack -e 40 -c 1 -i 46 -a 1 -x {4.0 0.0 4 ------- null}
- -t 1.38522 -s 4 -d 6 -p ack -e 40 -c 1 -i 46 -a 1 -x {4.0 0.0 4 ------- null}
h -t 1.38522 -s 4 -d 6 -p ack -e 40 -c 1 -i 46 -a 1 -x {4.0 0.0 -1 ------- null}
d -t 1.385224 -s 5 -d 6 -p ack -e 40 -c 1 -i 46 -a 1 -x {4.0 0.0 4 ------- null}
r -t 1.39749066666667 -s 6 -d 3 -p ack -e 40 -c 1 -i 44 -a 1 -x {4.0 0.0 3 ------- null}
+ -t 1.39749066666667 -s 3 -d 2 -p ack -e 40 -c 1 -i 44 -a 1 -x {4.0 0.0 3 ------- null}
- -t 1.39749066666667 -s 3 -d 2 -p ack -e 40 -c 1 -i 44 -a 1 -x {4.0 0.0 3 ------- null}
h -t 1.39749066666667 -s 3 -d 2 -p ack -e 40 -c 1 -i 44 -a 1 -x {4.0 0.0 -1 ------- null}
r -t 1.40068666666667 -s 6 -d 4 -p tcp -e 1040 -c 1 -i 37 -a 1 -x {0.0 4.0 6 ------- null}
h -t 1.40068666666667 -s 4 -d 6 -p ack -e 40 -c 1 -i 49 -a 1 -x {4.0 0.0 6 ------- null}
+ -t 1.41295333333333 -s 4 -d 6 -p ack -e 40 -c 1 -i 47 -a 1 -x {4.0 0.0 5 ------- null}
- -t 1.41295333333333 -s 4 -d 6 -p ack -e 40 -c 1 -i 47 -a 1 -x {4.0 0.0 5 ------- null}
h -t 1.41295333333333 -s 4 -d 6 -p ack -e 40 -c 1 -i 47 -a 1 -x {4.0 0.0 -1 ------- null}
d -t 1.41295733333333 -s 5 -d 6 -p ack -e 40 -c 1 -i 47 -a 1 -x {4.0 0.0 5 ------- null}
r -t 1.425224 -s 6 -d 3 -p ack -e 40 -c 1 -i 46 -a 1 -x {4.0 0.0 4 ------- null}
+ -t 1.425224 -s 3 -d 2 -p ack -e 40 -c 1 -i 46 -a 1 -x {4.0 0.0 4 ------- null}
- -t 1.425224 -s 3 -d 2 -p ack -e 40 -c 1 -i 46 -a 1 -x {4.0 0.0 4 ------- null}
h -t 1.425224 -s 3 -d 2 -p ack -e 40 -c 1 -i 46 -a 1 -x {4.0 0.0 -1 ------- null}
+ -t 1.44068666666667 -s 4 -d 6 -p ack -e 40 -c 1 -i 49 -a 1 -x {4.0 0.0 6 ------- null}
- -t 1.44068666666667 -s 4 -d 6 -p ack -e 40 -c 1 -i 49 -a 1 -x {4.0 0.0 6 ------- null}
h -t 1.44068666666667 -s 4 -d 6 -p ack -e 40 -c 1 -i 49 -a 1 -x {4.0 0.0 -1 ------- null}
d -t 1.44069066666667 -s 5 -d 6 -p ack -e 40 -c 1 -i 49 -a 1 -x {4.0 0.0 6 ------- null}
r -t 1.45295733333333 -s 6 -d 3 -p ack -e 40 -c 1 -i 47 -a 1 -x {4.0 0.0 5 ------- null}
+ -t 1.45295733333333 -s 3 -d 2 -p ack -e 40 -c 1 -i 47 -a 1 -x {4.0 0.0 5 ------- null}
- -t 1.45295733333333 -s 3 -d 2 -p ack -e 40 -c 1 -i 47 -a 1 -x {4.0 0.0 5 ------- null}
h -t 1.45295733333333 -s 3 -d 2 -p ack -e 40 -c 1 -i 47 -a 1 -x {4.0 0.0 -1 ------- null}
r -t 1.48069066666667 -s 6 -d 3 -p ack -e 40 -c 1 -i 49 -a 1 -x {4.0 0.0 6 ------- null}
+ -t 1.48069066666667 -s 3 -d 2 -p ack -e 40 -c 1 -i 49 -a 1 -x {4.0 0.0 6 ------- null}
- -t 1.48069066666667 -s 3 -d 2 -p ack -e 40 -c 1 -i 49 -a 1 -x {4.0 0.0 6 ------- null}
h -t 1.48069066666667 -s 3 -d 2 -p ack -e 40 -c 1 -i 49 -a 1 -x {4.0 0.0 -1 ------- null}
r -t 1.49855733333333 -s 3 -d 2 -p ack -e 40 -c 1 -i 44 -a 1 -x {4.0 0.0 3 ------- null}
+ -t 1.49855733333333 -s 2 -d 0 -p ack -e 40 -c 1 -i 44 -a 1 -x {4.0 0.0 3 ------- null}
- -t 1.49855733333333 -s 2 -d 0 -p ack -e 40 -c 1 -i 44 -a 1 -x {4.0 0.0 3 ------- null}
h -t 1.49855733333333 -s 2 -d 0 -p ack -e 40 -c 1 -i 44 -a 1 -x {4.0 0.0 -1 ------- null}
r -t 1.50871733333333 -s 2 -d 0 -p ack -e 40 -c 1 -i 44 -a 1 -x {4.0 0.0 3 ------- null}
+ -t 1.50871733333333 -s 0 -d 2 -p tcp -e 1040 -c 1 -i 53 -a 1 -x {0.0 4.0 7 ------- null}
- -t 1.50871733333333 -s 0 -d 2 -p tcp -e 1040 -c 1 -i 53 -a 1 -x {0.0 4.0 7 ------- null}
h -t 1.50871733333333 -s 0 -d 2 -p tcp -e 1040 -c 1 -i 53 -a 1 -x {0.0 4.0 -1 ------- null}
+ -t 1.50871733333333 -s 0 -d 2 -p tcp -e 1040 -c 1 -i 54 -a 1 -x {0.0 4.0 8 ------- null}
- -t 1.51287733333333 -s 0 -d 2 -p tcp -e 1040 -c 1 -i 54 -a 1 -x {0.0 4.0 8 ------- null}
h -t 1.51287733333333 -s 0 -d 2 -p tcp -e 1040 -c 1 -i 54 -a 1 -x {0.0 4.0 -1 ------- null}
r -t 1.52287733333333 -s 0 -d 2 -p tcp -e 1040 -c 1 -i 53 -a 1 -x {0.0 4.0 7 ------- null}
+ -t 1.52287733333333 -s 2 -d 3 -p tcp -e 1040 -c 1 -i 53 -a 1 -x {0.0 4.0 7 ------- null}
- -t 1.52287733333333 -s 2 -d 3 -p tcp -e 1040 -c 1 -i 53 -a 1 -x {0.0 4.0 7 ------- null}
h -t 1.52287733333333 -s 2 -d 3 -p tcp -e 1040 -c 1 -i 53 -a 1 -x {0.0 4.0 -1 ------- null}
r -t 1.52629066666667 -s 3 -d 2 -p ack -e 40 -c 1 -i 46 -a 1 -x {4.0 0.0 4 ------- null}
+ -t 1.52629066666667 -s 2 -d 0 -p ack -e 40 -c 1 -i 46 -a 1 -x {4.0 0.0 4 ------- null}
- -t 1.52629066666667 -s 2 -d 0 -p ack -e 40 -c 1 -i 46 -a 1 -x {4.0 0.0 4 ------- null}
h -t 1.52629066666667 -s 2 -d 0 -p ack -e 40 -c 1 -i 46 -a 1 -x {4.0 0.0 -1 ------- null}
r -t 1.52703733333333 -s 0 -d 2 -p tcp -e 1040 -c 1 -i 54 -a 1 -x {0.0 4.0 8 ------- null}
+ -t 1.52703733333333 -s 2 -d 3 -p tcp -e 1040 -c 1 -i 54 -a 1 -x {0.0 4.0 8 ------- null}
r -t 1.53645066666667 -s 2 -d 0 -p ack -e 40 -c 1 -i 46 -a 1 -x {4.0 0.0 4 ------- null}
+ -t 1.53645066666667 -s 0 -d 2 -p tcp -e 1040 -c 1 -i 56 -a 1 -x {0.0 4.0 9 ------- null}
- -t 1.53645066666667 -s 0 -d 2 -p tcp -e 1040 -c 1 -i 56 -a 1 -x {0.0 4.0 9 ------- null}
h -t 1.53645066666667 -s 0 -d 2 -p tcp -e 1040 -c 1 -i 56 -a 1 -x {0.0 4.0 -1 ------- null}
+ -t 1.53645066666667 -s 0 -d 2 -p tcp -e 1040 -c 1 -i 57 -a 1 -x {0.0 4.0 10 ------- null}
- -t 1.54061066666667 -s 0 -d 2 -p tcp -e 1040 -c 1 -i 57 -a 1 -x {0.0 4.0 10 ------- null}
h -t 1.54061066666667 -s 0 -d 2 -p tcp -e 1040 -c 1 -i 57 -a 1 -x {0.0 4.0 -1 ------- null}
- -t 1.55061066666667 -s 2 -d 3 -p tcp -e 1040 -c 1 -i 54 -a 1 -x {0.0 4.0 8 ------- null}
h -t 1.55061066666667 -s 2 -d 3 -p tcp -e 1040 -c 1 -i 54 -a 1 -x {0.0 4.0 -1 ------- null}
r -t 1.55061066666667 -s 0 -d 2 -p tcp -e 1040 -c 1 -i 56 -a 1 -x {0.0 4.0 9 ------- null}
+ -t 1.55061066666667 -s 2 -d 3 -p tcp -e 1040 -c 1 -i 56 -a 1 -x {0.0 4.0 9 ------- null}
r -t 1.554024 -s 3 -d 2 -p ack -e 40 -c 1 -i 47 -a 1 -x {4.0 0.0 5 ------- null}
+ -t 1.554024 -s 2 -d 0 -p ack -e 40 -c 1 -i 47 -a 1 -x {4.0 0.0 5 ------- null}
- -t 1.554024 -s 2 -d 0 -p ack -e 40 -c 1 -i 47 -a 1 -x {4.0 0.0 5 ------- null}
h -t 1.554024 -s 2 -d 0 -p ack -e 40 -c 1 -i 47 -a 1 -x {4.0 0.0 -1 ------- null}
r -t 1.55477066666667 -s 0 -d 2 -p tcp -e 1040 -c 1 -i 57 -a 1 -x {0.0 4.0 10 ------- null}
+ -t 1.55477066666667 -s 2 -d 3 -p tcp -e 1040 -c 1 -i 57 -a 1 -x {0.0 4.0 10 ------- null}
r -t 1.564184 -s 2 -d 0 -p ack -e 40 -c 1 -i 47 -a 1 -x {4.0 0.0 5 ------- null}
+ -t 1.564184 -s 0 -d 2 -p tcp -e 1040 -c 1 -i 59 -a 1 -x {0.0 4.0 11 ------- null}
- -t 1.564184 -s 0 -d 2 -p tcp -e 1040 -c 1 -i 59 -a 1 -x {0.0 4.0 11 ------- null}
h -t 1.564184 -s 0 -d 2 -p tcp -e 1040 -c 1 -i 59 -a 1 -x {0.0 4.0 -1 ------- null}
+ -t 1.564184 -s 0 -d 2 -p tcp -e 1040 -c 1 -i 60 -a 1 -x {0.0 4.0 12 ------- null}
- -t 1.568344 -s 0 -d 2 -p tcp -e 1040 -c 1 -i 60 -a 1 -x {0.0 4.0 12 ------- null}
h -t 1.568344 -s 0 -d 2 -p tcp -e 1040 -c 1 -i 60 -a 1 -x {0.0 4.0 -1 ------- null}
- -t 1.578344 -s 2 -d 3 -p tcp -e 1040 -c 1 -i 56 -a 1 -x {0.0 4.0 9 ------- null}
h -t 1.578344 -s 2 -d 3 -p tcp -e 1040 -c 1 -i 56 -a 1 -x {0.0 4.0 -1 ------- null}
r -t 1.578344 -s 0 -d 2 -p tcp -e 1040 -c 1 -i 59 -a 1 -x {0.0 4.0 11 ------- null}
+ -t 1.578344 -s 2 -d 3 -p tcp -e 1040 -c 1 -i 59 -a 1 -x {0.0 4.0 11 ------- null}
r -t 1.58175733333333 -s 3 -d 2 -p ack -e 40 -c 1 -i 49 -a 1 -x {4.0 0.0 6 ------- null}
+ -t 1.58175733333333 -s 2 -d 0 -p ack -e 40 -c 1 -i 49 -a 1 -x {4.0 0.0 6 ------- null}
- -t 1.58175733333333 -s 2 -d 0 -p ack -e 40 -c 1 -i 49 -a 1 -x {4.0 0.0 6 ------- null}
h -t 1.58175733333333 -s 2 -d 0 -p ack -e 40 -c 1 -i 49 -a 1 -x {4.0 0.0 -1 ------- null}
r -t 1.582504 -s 0 -d 2 -p tcp -e 1040 -c 1 -i 60 -a 1 -x {0.0 4.0 12 ------- null}
+ -t 1.582504 -s 2 -d 3 -p tcp -e 1040 -c 1 -i 60 -a 1 -x {0.0 4.0 12 ------- null}
r -t 1.59191733333333 -s 2 -d 0 -p ack -e 40 -c 1 -i 49 -a 1 -x {4.0 0.0 6 ------- null}
+ -t 1.59191733333333 -s 0 -d 2 -p tcp -e 1040 -c 1 -i 62 -a 1 -x {0.0 4.0 13 ------- null}
- -t 1.59191733333333 -s 0 -d 2 -p tcp -e 1040 -c 1 -i 62 -a 1 -x {0.0 4.0 13 ------- null}
h -t 1.59191733333333 -s 0 -d 2 -p tcp -e 1040 -c 1 -i 62 -a 1 -x {0.0 4.0 -1 ------- null}
+ -t 1.59191733333333 -s 0 -d 2 -p tcp -e 1040 -c 1 -i 63 -a 1 -x {0.0 4.0 14 ------- null}
- -t 1.59607733333333 -s 0 -d 2 -p tcp -e 1040 -c 1 -i 63 -a 1 -x {0.0 4.0 14 ------- null}
h -t 1.59607733333333 -s 0 -d 2 -p tcp -e 1040 -c 1 -i 63 -a 1 -x {0.0 4.0 -1 ------- null}
- -t 1.60607733333333 -s 2 -d 3 -p tcp -e 1040 -c 1 -i 57 -a 1 -x {0.0 4.0 10 ------- null}
h -t 1.60607733333333 -s 2 -d 3 -p tcp -e 1040 -c 1 -i 57 -a 1 -x {0.0 4.0 -1 ------- null}
r -t 1.60607733333333 -s 0 -d 2 -p tcp -e 1040 -c 1 -i 62 -a 1 -x {0.0 4.0 13 ------- null}
+ -t 1.60607733333333 -s 2 -d 3 -p tcp -e 1040 -c 1 -i 62 -a 1 -x {0.0 4.0 13 ------- null}
r -t 1.61023733333333 -s 0 -d 2 -p tcp -e 1040 -c 1 -i 63 -a 1 -x {0.0 4.0 14 ------- null}
+ -t 1.61023733333333 -s 2 -d 3 -p tcp -e 1040 -c 1 -i 63 -a 1 -x {0.0 4.0 14 ------- null}
- -t 1.63381066666667 -s 2 -d 3 -p tcp -e 1040 -c 1 -i 59 -a 1 -x {0.0 4.0 11 ------- null}
h -t 1.63381066666667 -s 2 -d 3 -p tcp -e 1040 -c 1 -i 59 -a 1 -x {0.0 4.0 -1 ------- null}
r -t 1.65061066666667 -s 2 -d 3 -p tcp -e 1040 -c 1 -i 53 -a 1 -x {0.0 4.0 7 ------- null}
h -t 1.65061066666667 -s 3 -d 6 -p tcp -e 1040 -c 1 -i 53 -a 1 -x {0.0 4.0 7 ------- null}
- -t 1.661544 -s 2 -d 3 -p tcp -e 1040 -c 1 -i 60 -a 1 -x {0.0 4.0 12 ------- null}
h -t 1.661544 -s 2 -d 3 -p tcp -e 1040 -c 1 -i 60 -a 1 -x {0.0 4.0 -1 ------- null}
r -t 1.678344 -s 2 -d 3 -p tcp -e 1040 -c 1 -i 54 -a 1 -x {0.0 4.0 8 ------- null}
h -t 1.678344 -s 3 -d 6 -p tcp -e 1040 -c 1 -i 54 -a 1 -x {0.0 4.0 8 ------- null}
- -t 1.68927733333333 -s 2 -d 3 -p tcp -e 1040 -c 1 -i 62 -a 1 -x {0.0 4.0 13 ------- null}
h -t 1.68927733333333 -s 2 -d 3 -p tcp -e 1040 -c 1 -i 62 -a 1 -x {0.0 4.0 -1 ------- null}
+ -t 1.69061066666667 -s 3 -d 6 -p tcp -e 1040 -c 1 -i 53 -a 1 -x {0.0 4.0 7 ------- null}
- -t 1.69061066666667 -s 3 -d 6 -p tcp -e 1040 -c 1 -i 53 -a 1 -x {0.0 4.0 7 ------- null}
h -t 1.69061066666667 -s 3 -d 6 -p tcp -e 1040 -c 1 -i 53 -a 1 -x {0.0 4.0 -1 ------- null}
d -t 1.69061466666667 -s 5 -d 6 -p tcp -e 1040 -c 1 -i 53 -a 1 -x {0.0 4.0 7 ------- null}
r -t 1.70607733333333 -s 2 -d 3 -p tcp -e 1040 -c 1 -i 56 -a 1 -x {0.0 4.0 9 ------- null}
h -t 1.70607733333333 -s 3 -d 6 -p tcp -e 1040 -c 1 -i 56 -a 1 -x {0.0 4.0 9 ------- null}
- -t 1.71701066666667 -s 2 -d 3 -p tcp -e 1040 -c 1 -i 63 -a 1 -x {0.0 4.0 14 ------- null}
h -t 1.71701066666667 -s 2 -d 3 -p tcp -e 1040 -c 1 -i 63 -a 1 -x {0.0 4.0 -1 ------- null}
+ -t 1.718344 -s 3 -d 6 -p tcp -e 1040 -c 1 -i 54 -a 1 -x {0.0 4.0 8 ------- null}
- -t 1.718344 -s 3 -d 6 -p tcp -e 1040 -c 1 -i 54 -a 1 -x {0.0 4.0 8 ------- null}
h -t 1.718344 -s 3 -d 6 -p tcp -e 1040 -c 1 -i 54 -a 1 -x {0.0 4.0 -1 ------- null}
d -t 1.718348 -s 5 -d 6 -p tcp -e 1040 -c 1 -i 54 -a 1 -x {0.0 4.0 8 ------- null}
r -t 1.73061466666667 -s 6 -d 4 -p tcp -e 1040 -c 1 -i 53 -a 1 -x {0.0 4.0 7 ------- null}
h -t 1.73061466666667 -s 4 -d 6 -p ack -e 40 -c 1 -i 68 -a 1 -x {4.0 0.0 7 ------- null}
r -t 1.73381066666667 -s 2 -d 3 -p tcp -e 1040 -c 1 -i 57 -a 1 -x {0.0 4.0 10 ------- null}
h -t 1.73381066666667 -s 3 -d 6 -p tcp -e 1040 -c 1 -i 57 -a 1 -x {0.0 4.0 10 ------- null}
+ -t 1.74607733333333 -s 3 -d 6 -p tcp -e 1040 -c 1 -i 56 -a 1 -x {0.0 4.0 9 ------- null}
- -t 1.74607733333333 -s 3 -d 6 -p tcp -e 1040 -c 1 -i 56 -a 1 -x {0.0 4.0 9 ------- null}
h -t 1.74607733333333 -s 3 -d 6 -p tcp -e 1040 -c 1 -i 56 -a 1 -x {0.0 4.0 -1 ------- null}
d -t 1.74608133333333 -s 5 -d 6 -p tcp -e 1040 -c 1 -i 56 -a 1 -x {0.0 4.0 9 ------- null}
r -t 1.758348 -s 6 -d 4 -p tcp -e 1040 -c 1 -i 54 -a 1 -x {0.0 4.0 8 ------- null}
h -t 1.758348 -s 4 -d 6 -p ack -e 40 -c 1 -i 70 -a 1 -x {4.0 0.0 8 ------- null}
r -t 1.761544 -s 2 -d 3 -p tcp -e 1040 -c 1 -i 59 -a 1 -x {0.0 4.0 11 ------- null}
h -t 1.761544 -s 3 -d 6 -p tcp -e 1040 -c 1 -i 59 -a 1 -x {0.0 4.0 11 ------- null}
+ -t 1.77061466666667 -s 4 -d 6 -p ack -e 40 -c 1 -i 68 -a 1 -x {4.0 0.0 7 ------- null}
- -t 1.77061466666667 -s 4 -d 6 -p ack -e 40 -c 1 -i 68 -a 1 -x {4.0 0.0 7 ------- null}
h -t 1.77061466666667 -s 4 -d 6 -p ack -e 40 -c 1 -i 68 -a 1 -x {4.0 0.0 -1 ------- null}
d -t 1.77061866666667 -s 5 -d 6 -p ack -e 40 -c 1 -i 68 -a 1 -x {4.0 0.0 7 ------- null}
+ -t 1.77381066666667 -s 3 -d 6 -p tcp -e 1040 -c 1 -i 57 -a 1 -x {0.0 4.0 10 ------- null}
- -t 1.77381066666667 -s 3 -d 6 -p tcp -e 1040 -c 1 -i 57 -a 1 -x {0.0 4.0 10 ------- null}
h -t 1.77381066666667 -s 3 -d 6 -p tcp -e 1040 -c 1 -i 57 -a 1 -x {0.0 4.0 -1 ------- null}
d -t 1.77381466666667 -s 5 -d 6 -p tcp -e 1040 -c 1 -i 57 -a 1 -x {0.0 4.0 10 ------- null}
r -t 1.78608133333333 -s 6 -d 4 -p tcp -e 1040 -c 1 -i 56 -a 1 -x {0.0 4.0 9 ------- null}
h -t 1.78608133333333 -s 4 -d 6 -p ack -e 40 -c 1 -i 72 -a 1 -x {4.0 0.0 9 ------- null}
r -t 1.78927733333333 -s 2 -d 3 -p tcp -e 1040 -c 1 -i 60 -a 1 -x {0.0 4.0 12 ------- null}
h -t 1.78927733333333 -s 3 -d 6 -p tcp -e 1040 -c 1 -i 60 -a 1 -x {0.0 4.0 12 ------- null}
+ -t 1.798348 -s 4 -d 6 -p ack -e 40 -c 1 -i 70 -a 1 -x {4.0 0.0 8 ------- null}
- -t 1.798348 -s 4 -d 6 -p ack -e 40 -c 1 -i 70 -a 1 -x {4.0 0.0 8 ------- null}
h -t 1.798348 -s 4 -d 6 -p ack -e 40 -c 1 -i 70 -a 1 -x {4.0 0.0 -1 ------- null}
d -t 1.798352 -s 5 -d 6 -p ack -e 40 -c 1 -i 70 -a 1 -x {4.0 0.0 8 ------- null}
+ -t 1.801544 -s 3 -d 6 -p tcp -e 1040 -c 1 -i 59 -a 1 -x {0.0 4.0 11 ------- null}
- -t 1.801544 -s 3 -d 6 -p tcp -e 1040 -c 1 -i 59 -a 1 -x {0.0 4.0 11 ------- null}
h -t 1.801544 -s 3 -d 6 -p tcp -e 1040 -c 1 -i 59 -a 1 -x {0.0 4.0 -1 ------- null}
d -t 1.801548 -s 5 -d 6 -p tcp -e 1040 -c 1 -i 59 -a 1 -x {0.0 4.0 11 ------- null}
r -t 1.81061866666667 -s 6 -d 3 -p ack -e 40 -c 1 -i 68 -a 1 -x {4.0 0.0 7 ------- null}
+ -t 1.81061866666667 -s 3 -d 2 -p ack -e 40 -c 1 -i 68 -a 1 -x {4.0 0.0 7 ------- null}
- -t 1.81061866666667 -s 3 -d 2 -p ack -e 40 -c 1 -i 68 -a 1 -x {4.0 0.0 7 ------- null}
h -t 1.81061866666667 -s 3 -d 2 -p ack -e 40 -c 1 -i 68 -a 1 -x {4.0 0.0 -1 ------- null}
r -t 1.81381466666667 -s 6 -d 4 -p tcp -e 1040 -c 1 -i 57 -a 1 -x {0.0 4.0 10 ------- null}
h -t 1.81381466666667 -s 4 -d 6 -p ack -e 40 -c 1 -i 74 -a 1 -x {4.0 0.0 10 ------- null}
r -t 1.81701066666667 -s 2 -d 3 -p tcp -e 1040 -c 1 -i 62 -a 1 -x {0.0 4.0 13 ------- null}
h -t 1.81701066666667 -s 3 -d 6 -p tcp -e 1040 -c 1 -i 62 -a 1 -x {0.0 4.0 13 ------- null}
+ -t 1.82608133333333 -s 4 -d 6 -p ack -e 40 -c 1 -i 72 -a 1 -x {4.0 0.0 9 ------- null}
- -t 1.82608133333333 -s 4 -d 6 -p ack -e 40 -c 1 -i 72 -a 1 -x {4.0 0.0 9 ------- null}
h -t 1.82608133333333 -s 4 -d 6 -p ack -e 40 -c 1 -i 72 -a 1 -x {4.0 0.0 -1 ------- null}
d -t 1.82608533333333 -s 5 -d 6 -p ack -e 40 -c 1 -i 72 -a 1 -x {4.0 0.0 9 ------- null}
+ -t 1.82927733333333 -s 3 -d 6 -p tcp -e 1040 -c 1 -i 60 -a 1 -x {0.0 4.0 12 ------- null}
- -t 1.82927733333333 -s 3 -d 6 -p tcp -e 1040 -c 1 -i 60 -a 1 -x {0.0 4.0 12 ------- null}
h -t 1.82927733333333 -s 3 -d 6 -p tcp -e 1040 -c 1 -i 60 -a 1 -x {0.0 4.0 -1 ------- null}
d -t 1.82928133333333 -s 5 -d 6 -p tcp -e 1040 -c 1 -i 60 -a 1 -x {0.0 4.0 12 ------- null}
r -t 1.838352 -s 6 -d 3 -p ack -e 40 -c 1 -i 70 -a 1 -x {4.0 0.0 8 ------- null}
+ -t 1.838352 -s 3 -d 2 -p ack -e 40 -c 1 -i 70 -a 1 -x {4.0 0.0 8 ------- null}
- -t 1.838352 -s 3 -d 2 -p ack -e 40 -c 1 -i 70 -a 1 -x {4.0 0.0 8 ------- null}
h -t 1.838352 -s 3 -d 2 -p ack -e 40 -c 1 -i 70 -a 1 -x {4.0 0.0 -1 ------- null}
r -t 1.841548 -s 6 -d 4 -p tcp -e 1040 -c 1 -i 59 -a 1 -x {0.0 4.0 11 ------- null}
h -t 1.841548 -s 4 -d 6 -p ack -e 40 -c 1 -i 75 -a 1 -x {4.0 0.0 11 ------- null}
r -t 1.844744 -s 2 -d 3 -p tcp -e 1040 -c 1 -i 63 -a 1 -x {0.0 4.0 14 ------- null}
h -t 1.844744 -s 3 -d 6 -p tcp -e 1040 -c 1 -i 63 -a 1 -x {0.0 4.0 14 ------- null}
+ -t 1.85381466666667 -s 4 -d 6 -p ack -e 40 -c 1 -i 74 -a 1 -x {4.0 0.0 10 ------- null}
- -t 1.85381466666667 -s 4 -d 6 -p ack -e 40 -c 1 -i 74 -a 1 -x {4.0 0.0 10 ------- null}
h -t 1.85381466666667 -s 4 -d 6 -p ack -e 40 -c 1 -i 74 -a 1 -x {4.0 0.0 -1 ------- null}
d -t 1.85381866666667 -s 5 -d 6 -p ack -e 40 -c 1 -i 74 -a 1 -x {4.0 0.0 10 ------- null}
+ -t 1.85701066666667 -s 3 -d 6 -p tcp -e 1040 -c 1 -i 62 -a 1 -x {0.0 4.0 13 ------- null}
- -t 1.85701066666667 -s 3 -d 6 -p tcp -e 1040 -c 1 -i 62 -a 1 -x {0.0 4.0 13 ------- null}
h -t 1.85701066666667 -s 3 -d 6 -p tcp -e 1040 -c 1 -i 62 -a 1 -x {0.0 4.0 -1 ------- null}