+ 0.3 0 2 tcp 40 ------- 1 0.0 4.0 0 3
- 0.3 0 2 tcp 40 ------- 1 0.0 4.0 0 3
r 0.31016 0 2 tcp 40 ------- 1 0.0 4.0 0 3
+ 0.31016 2 3 tcp 40 ------- 1 0.0 4.0 0 3
- 0.31016 2 3 tcp 40 ------- 1 0.0 4.0 0 3
r 0.411227 2 3 tcp 40 ------- 1 0.0 4.0 0 3
h 0.411227 3 6 tcp 40 ------- 1 0.0 4.0 0 3
+ 0.451227 3 6 tcp 40 ------- 1 0.0 4.0 0 3
- 0.451227 3 6 tcp 40 ------- 1 0.0 4.0 0 3
d 0.451231 5 6 tcp 40 ------- 1 0.0 4.0 0 3
r 0.491231 6 4 tcp 40 ------- 1 0.0 4.0 0 3
h 0.491231 4 6 ack 40 ------- 1 4.0 0.0 0 10
+ 0.531231 4 6 ack 40 ------- 1 4.0 0.0 0 10
- 0.531231 4 6 ack 40 ------- 1 4.0 0.0 0 10
d 0.531235 5 6 ack 40 ------- 1 4.0 0.0 0 10
r 0.571235 6 3 ack 40 ------- 1 4.0 0.0 0 10
+ 0.571235 3 2 ack 40 ------- 1 4.0 0.0 0 10
- 0.571235 3 2 ack 40 ------- 1 4.0 0.0 0 10
r 0.672301 3 2 ack 40 ------- 1 4.0 0.0 0 10
+ 0.672301 2 0 ack 40 ------- 1 4.0 0.0 0 10
- 0.672301 2 0 ack 40 ------- 1 4.0 0.0 0 10
r 0.682461 2 0 ack 40 ------- 1 4.0 0.0 0 10
+ 0.682461 0 2 tcp 1040 ------- 1 0.0 4.0 1 17
- 0.682461 0 2 tcp 1040 ------- 1 0.0 4.0 1 17
+ 0.682461 0 2 tcp 1040 ------- 1 0.0 4.0 2 18
- 0.686621 0 2 tcp 1040 ------- 1 0.0 4.0 2 18
r 0.696621 0 2 tcp 1040 ------- 1 0.0 4.0 1 17
+ 0.696621 2 3 tcp 1040 ------- 1 0.0 4.0 1 17
- 0.696621 2 3 tcp 1040 ------- 1 0.0 4.0 1 17
r 0.700781 0 2 tcp 1040 ------- 1 0.0 4.0 2 18
+ 0.700781 2 3 tcp 1040 ------- 1 0.0 4.0 2 18
- 0.724355 2 3 tcp 1040 ------- 1 0.0 4.0 2 18
r 0.824355 2 3 tcp 1040 ------- 1 0.0 4.0 1 17
h 0.824355 3 6 tcp 1040 ------- 1 0.0 4.0 1 17
r 0.852088 2 3 tcp 1040 ------- 1 0.0 4.0 2 18
h 0.852088 3 6 tcp 1040 ------- 1 0.0 4.0 2 18
+ 0.864355 3 6 tcp 1040 ------- 1 0.0 4.0 1 17
- 0.864355 3 6 tcp 1040 ------- 1 0.0 4.0 1 17
d 0.864359 5 6 tcp 1040 ------- 1 0.0 4.0 1 17
+ 0.892088 3 6 tcp 1040 ------- 1 0.0 4.0 2 18
- 0.892088 3 6 tcp 1040 ------- 1 0.0 4.0 2 18
d 0.892092 5 6 tcp 1040 ------- 1 0.0 4.0 2 18
r 0.904359 6 4 tcp 1040 ------- 1 0.0 4.0 1 17
h 0.904359 4 6 ack 40 ------- 1 4.0 0.0 1 25
r 0.932092 6 4 tcp 1040 ------- 1 0.0 4.0 2 18
h 0.932092 4 6 ack 40 ------- 1 4.0 0.0 2 27
+ 0.944359 4 6 ack 40 ------- 1 4.0 0.0 1 25
- 0.944359 4 6 ack 40 ------- 1 4.0 0.0 1 25
d 0.944363 5 6 ack 40 ------- 1 4.0 0.0 1 25
+ 0.972092 4 6 ack 40 ------- 1 4.0 0.0 2 27
- 0.972092 4 6 ack 40 ------- 1 4.0 0.0 2 27
d 0.972096 5 6 ack 40 ------- 1 4.0 0.0 2 27
r 0.984363 6 3 ack 40 ------- 1 4.0 0.0 1 25
+ 0.984363 3 2 ack 40 ------- 1 4.0 0.0 1 25
- 0.984363 3 2 ack 40 ------- 1 4.0 0.0 1 25
r 1.012096 6 3 ack 40 ------- 1 4.0 0.0 2 27
+ 1.012096 3 2 ack 40 ------- 1 4.0 0.0 2 27
- 1.012096 3 2 ack 40 ------- 1 4.0 0.0 2 27
r 1.085429 3 2 ack 40 ------- 1 4.0 0.0 1 25
+ 1.085429 2 0 ack 40 ------- 1 4.0 0.0 1 25
- 1.085429 2 0 ack 40 ------- 1 4.0 0.0 1 25
r 1.095589 2 0 ack 40 ------- 1 4.0 0.0 1 25
+ 1.095589 0 2 tcp 1040 ------- 1 0.0 4.0 3 33
- 1.095589 0 2 tcp 1040 ------- 1 0.0 4.0 3 33
+ 1.095589 0 2 tcp 1040 ------- 1 0.0 4.0 4 34
- 1.099749 0 2 tcp 1040 ------- 1 0.0 4.0 4 34
r 1.109749 0 2 tcp 1040 ------- 1 0.0 4.0 3 33
+ 1.109749 2 3 tcp 1040 ------- 1 0.0 4.0 3 33
- 1.109749 2 3 tcp 1040 ------- 1 0.0 4.0 3 33
r 1.113163 3 2 ack 40 ------- 1 4.0 0.0 2 27
+ 1.113163 2 0 ack 40 ------- 1 4.0 0.0 2 27
- 1.113163 2 0 ack 40 ------- 1 4.0 0.0 2 27
r 1.113909 0 2 tcp 1040 ------- 1 0.0 4.0 4 34
+ 1.113909 2 3 tcp 1040 ------- 1 0.0 4.0 4 34
r 1.123323 2 0 ack 40 ------- 1 4.0 0.0 2 27
+ 1.123323 0 2 tcp 1040 ------- 1 0.0 4.0 5 36
- 1.123323 0 2 tcp 1040 ------- 1 0.0 4.0 5 36
+ 1.123323 0 2 tcp 1040 ------- 1 0.0 4.0 6 37
- 1.127483 0 2 tcp 1040 ------- 1 0.0 4.0 6 37
r 1.137483 0 2 tcp 1040 ------- 1 0.0 4.0 5 36
+ 1.137483 2 3 tcp 1040 ------- 1 0.0 4.0 5 36
- 1.137483 2 3 tcp 1040 ------- 1 0.0 4.0 4 34
r 1.141643 0 2 tcp 1040 ------- 1 0.0 4.0 6 37
+ 1.141643 2 3 tcp 1040 ------- 1 0.0 4.0 6 37
- 1.165216 2 3 tcp 1040 ------- 1 0.0 4.0 5 36
- 1.192949 2 3 tcp 1040 ------- 1 0.0 4.0 6 37
r 1.237483 2 3 tcp 1040 ------- 1 0.0 4.0 3 33
h 1.237483 3 6 tcp 1040 ------- 1 0.0 4.0 3 33
r 1.265216 2 3 tcp 1040 ------- 1 0.0 4.0 4 34
h 1.265216 3 6 tcp 1040 ------- 1 0.0 4.0 4 34
+ 1.277483 3 6 tcp 1040 ------- 1 0.0 4.0 3 33
- 1.277483 3 6 tcp 1040 ------- 1 0.0 4.0 3 33
d 1.277487 5 6 tcp 1040 ------- 1 0.0 4.0 3 33
r 1.292949 2 3 tcp 1040 ------- 1 0.0 4.0 5 36
h 1.292949 3 6 tcp 1040 ------- 1 0.0 4.0 5 36
+ 1.305216 3 6 tcp 1040 ------- 1 0.0 4.0 4 34
- 1.305216 3 6 tcp 1040 ------- 1 0.0 4.0 4 34
d 1.30522 5 6 tcp 1040 ------- 1 0.0 4.0 4 34
r 1.317487 6 4 tcp 1040 ------- 1 0.0 4.0 3 33
h 1.317487 4 6 ack 40 ------- 1 4.0 0.0 3 44
r 1.320683 2 3 tcp 1040 ------- 1 0.0 4.0 6 37
h 1.320683 3 6 tcp 1040 ------- 1 0.0 4.0 6 37
+ 1.332949 3 6 tcp 1040 ------- 1 0.0 4.0 5 36
- 1.332949 3 6 tcp 1040 ------- 1 0.0 4.0 5 36
d 1.332953 5 6 tcp 1040 ------- 1 0.0 4.0 5 36
r 1.34522 6 4 tcp 1040 ------- 1 0.0 4.0 4 34
h 1.34522 4 6 ack 40 ------- 1 4.0 0.0 4 46
+ 1.357487 4 6 ack 40 ------- 1 4.0 0.0 3 44
- 1.357487 4 6 ack 40 ------- 1 4.0 0.0 3 44
d 1.357491 5 6 ack 40 ------- 1 4.0 0.0 3 44
+ 1.360683 3 6 tcp 1040 ------- 1 0.0 4.0 6 37
- 1.360683 3 6 tcp 1040 ------- 1 0.0 4.0 6 37
d 1.360687 5 6 tcp 1040 ------- 1 0.0 4.0 6 37
r 1.372953 6 4 tcp 1040 ------- 1 0.0 4.0 5 36
h 1.372953 4 6 ack 40 ------- 1 4.0 0.0 5 47
+ 1.38522 4 6 ack 40 ------- 1 4.0 0.0 4 46
- 1.38522 4 6 ack 40 ------- 1 4.0 0.0 4 46
d 1.385224 5 6 ack 40 ------- 1 4.0 0.0 4 46
r 1.397491 6 3 ack 40 ------- 1 4.0 0.0 3 44
+ 1.397491 3 2 ack 40 ------- 1 4.0 0.0 3 44
- 1.397491 3 2 ack 40 ------- 1 4.0 0.0 3 44
r 1.400687 6 4 tcp 1040 ------- 1 0.0 4.0 6 37
h 1.400687 4 6 ack 40 ------- 1 4.0 0.0 6 49
+ 1.412953 4 6 ack 40 ------- 1 4.0 0.0 5 47
- 1.412953 4 6 ack 40 ------- 1 4.0 0.0 5 47
d 1.412957 5 6 ack 40 ------- 1 4.0 0.0 5 47
r 1.425224 6 3 ack 40 ------- 1 4.0 0.0 4 46
+ 1.425224 3 2 ack 40 ------- 1 4.0 0.0 4 46
- 1.425224 3 2 ack 40 ------- 1 4.0 0.0 4 46
+ 1.440687 4 6 ack 40 ------- 1 4.0 0.0 6 49
- 1.440687 4 6 ack 40 ------- 1 4.0 0.0 6 49
d 1.440691 5 6 ack 40 ------- 1 4.0 0.0 6 49
r 1.452957 6 3 ack 40 ------- 1 4.0 0.0 5 47
+ 1.452957 3 2 ack 40 ------- 1 4.0 0.0 5 47
- 1.452957 3 2 ack 40 ------- 1 4.0 0.0 5 47
r 1.480691 6 3 ack 40 ------- 1 4.0 0.0 6 49
+ 1.480691 3 2 ack 40 ------- 1 4.0 0.0 6 49
- 1.480691 3 2 ack 40 ------- 1 4.0 0.0 6 49
r 1.498557 3 2 ack 40 ------- 1 4.0 0.0 3 44
+ 1.498557 2 0 ack 40 ------- 1 4.0 0.0 3 44
- 1.498557 2 0 ack 40 ------- 1 4.0 0.0 3 44
r 1.508717 2 0 ack 40 ------- 1 4.0 0.0 3 44
+ 1.508717 0 2 tcp 1040 ------- 1 0.0 4.0 7 53
- 1.508717 0 2 tcp 1040 ------- 1 0.0 4.0 7 53
+ 1.508717 0 2 tcp 1040 ------- 1 0.0 4.0 8 54
- 1.512877 0 2 tcp 1040 ------- 1 0.0 4.0 8 54
r 1.522877 0 2 tcp 1040 ------- 1 0.0 4.0 7 53
+ 1.522877 2 3 tcp 1040 ------- 1 0.0 4.0 7 53
- 1.522877 2 3 tcp 1040 ------- 1 0.0 4.0 7 53
r 1.526291 3 2 ack 40 ------- 1 4.0 0.0 4 46
+ 1.526291 2 0 ack 40 ------- 1 4.0 0.0 4 46
- 1.526291 2 0 ack 40 ------- 1 4.0 0.0 4 46
r 1.527037 0 2 tcp 1040 ------- 1 0.0 4.0 8 54
+ 1.527037 2 3 tcp 1040 ------- 1 0.0 4.0 8 54
r 1.536451 2 0 ack 40 ------- 1 4.0 0.0 4 46
+ 1.536451 0 2 tcp 1040 ------- 1 0.0 4.0 9 56
- 1.536451 0 2 tcp 1040 ------- 1 0.0 4.0 9 56
+ 1.536451 0 2 tcp 1040 ------- 1 0.0 4.0 10 57
- 1.540611 0 2 tcp 1040 ------- 1 0.0 4.0 10 57
- 1.550611 2 3 tcp 1040 ------- 1 0.0 4.0 8 54
r 1.550611 0 2 tcp 1040 ------- 1 0.0 4.0 9 56
+ 1.550611 2 3 tcp 1040 ------- 1 0.0 4.0 9 56
r 1.554024 3 2 ack 40 ------- 1 4.0 0.0 5 47
+ 1.554024 2 0 ack 40 ------- 1 4.0 0.0 5 47
- 1.554024 2 0 ack 40 ------- 1 4.0 0.0 5 47
r 1.554771 0 2 tcp 1040 ------- 1 0.0 4.0 10 57
+ 1.554771 2 3 tcp 1040 ------- 1 0.0 4.0 10 57
r 1.564184 2 0 ack 40 ------- 1 4.0 0.0 5 47
+ 1.564184 0 2 tcp 1040 ------- 1 0.0 4.0 11 59
- 1.564184 0 2 tcp 1040 ------- 1 0.0 4.0 11 59
+ 1.564184 0 2 tcp 1040 ------- 1 0.0 4.0 12 60
- 1.568344 0 2 tcp 1040 ------- 1 0.0 4.0 12 60
- 1.578344 2 3 tcp 1040 ------- 1 0.0 4.0 9 56
r 1.578344 0 2 tcp 1040 ------- 1 0.0 4.0 11 59
+ 1.578344 2 3 tcp 1040 ------- 1 0.0 4.0 11 59
r 1.581757 3 2 ack 40 ------- 1 4.0 0.0 6 49
+ 1.581757 2 0 ack 40 ------- 1 4.0 0.0 6 49
- 1.581757 2 0 ack 40 ------- 1 4.0 0.0 6 49
r 1.582504 0 2 tcp 1040 ------- 1 0.0 4.0 12 60
+ 1.582504 2 3 tcp 1040 ------- 1 0.0 4.0 12 60
r 1.591917 2 0 ack 40 ------- 1 4.0 0.0 6 49
+ 1.591917 0 2 tcp 1040 ------- 1 0.0 4.0 13 62
- 1.591917 0 2 tcp 1040 ------- 1 0.0 4.0 13 62
+ 1.591917 0 2 tcp 1040 ------- 1 0.0 4.0 14 63
- 1.596077 0 2 tcp 1040 ------- 1 0.0 4.0 14 63
- 1.606077 2 3 tcp 1040 ------- 1 0.0 4.0 10 57
r 1.606077 0 2 tcp 1040 ------- 1 0.0 4.0 13 62
+ 1.606077 2 3 tcp 1040 ------- 1 0.0 4.0 13 62
r 1.610237 0 2 tcp 1040 ------- 1 0.0 4.0 14 63
+ 1.610237 2 3 tcp 1040 ------- 1 0.0 4.0 14 63
- 1.633811 2 3 tcp 1040 ------- 1 0.0 4.0 11 59
r 1.650611 2 3 tcp 1040 ------- 1 0.0 4.0 7 53
h 1.650611 3 6 tcp 1040 ------- 1 0.0 4.0 7 53
- 1.661544 2 3 tcp 1040 ------- 1 0.0 4.0 12 60
r 1.678344 2 3 tcp 1040 ------- 1 0.0 4.0 8 54
h 1.678344 3 6 tcp 1040 ------- 1 0.0 4.0 8 54
- 1.689277 2 3 tcp 1040 ------- 1 0.0 4.0 13 62
+ 1.690611 3 6 tcp 1040 ------- 1 0.0 4.0 7 53
- 1.690611 3 6 tcp 1040 ------- 1 0.0 4.0 7 53
d 1.690615 5 6 tcp 1040 ------- 1 0.0 4.0 7 53
r 1.706077 2 3 tcp 1040 ------- 1 0.0 4.0 9 56
h 1.706077 3 6 tcp 1040 ------- 1 0.0 4.0 9 56
- 1.717011 2 3 tcp 1040 ------- 1 0.0 4.0 14 63
+ 1.718344 3 6 tcp 1040 ------- 1 0.0 4.0 8 54
- 1.718344 3 6 tcp 1040 ------- 1 0.0 4.0 8 54
d 1.718348 5 6 tcp 1040 ------- 1 0.0 4.0 8 54
r 1.730615 6 4 tcp 1040 ------- 1 0.0 4.0 7 53
h 1.730615 4 6 ack 40 ------- 1 4.0 0.0 7 68
r 1.733811 2 3 tcp 1040 ------- 1 0.0 4.0 10 57
h 1.733811 3 6 tcp 1040 ------- 1 0.0 4.0 10 57
+ 1.746077 3 6 tcp 1040 ------- 1 0.0 4.0 9 56
- 1.746077 3 6 tcp 1040 ------- 1 0.0 4.0 9 56
d 1.746081 5 6 tcp 1040 ------- 1 0.0 4.0 9 56
r 1.758348 6 4 tcp 1040 ------- 1 0.0 4.0 8 54
h 1.758348 4 6 ack 40 ------- 1 4.0 0.0 8 70
r 1.761544 2 3 tcp 1040 ------- 1 0.0 4.0 11 59
h 1.761544 3 6 tcp 1040 ------- 1 0.0 4.0 11 59
+ 1.770615 4 6 ack 40 ------- 1 4.0 0.0 7 68
- 1.770615 4 6 ack 40 ------- 1 4.0 0.0 7 68
d 1.770619 5 6 ack 40 ------- 1 4.0 0.0 7 68
+ 1.773811 3 6 tcp 1040 ------- 1 0.0 4.0 10 57
- 1.773811 3 6 tcp 1040 ------- 1 0.0 4.0 10 57
d 1.773815 5 6 tcp 1040 ------- 1 0.0 4.0 10 57
r 1.786081 6 4 tcp 1040 ------- 1 0.0 4.0 9 56
h 1.786081 4 6 ack 40 ------- 1 4.0 0.0 9 72
r 1.789277 2 3 tcp 1040 ------- 1 0.0 4.0 12 60
h 1.789277 3 6 tcp 1040 ------- 1 0.0 4.0 12 60
+ 1.798348 4 6 ack 40 ------- 1 4.0 0.0 8 70
- 1.798348 4 6 ack 40 ------- 1 4.0 0.0 8 70
d 1.798352 5 6 ack 40 ------- 1 4.0 0.0 8 70
+ 1.801544 3 6 tcp 1040 ------- 1 0.0 4.0 11 59
- 1.801544 3 6 tcp 1040 ------- 1 0.0 4.0 11 59
d 1.801548 5 6 tcp 1040 ------- 1 0.0 4.0 11 59
r 1.810619 6 3 ack 40 ------- 1 4.0 0.0 7 68
+ 1.810619 3 2 ack 40 ------- 1 4.0 0.0 7 68
- 1.810619 3 2 ack 40 ------- 1 4.0 0.0 7 68
r 1.813815 6 4 tcp 1040 ------- 1 0.0 4.0 10 57
h 1.813815 4 6 ack 40 ------- 1 4.0 0.0 10 74
r 1.817011 2 3 tcp 1040 ------- 1 0.0 4.0 13 62
h 1.817011 3 6 tcp 1040 ------- 1 0.0 4.0 13 62
+ 1.826081 4 6 ack 40 ------- 1 4.0 0.0 9 72
- 1.826081 4 6 ack 40 ------- 1 4.0 0.0 9 72
d 1.826085 5 6 ack 40 ------- 1 4.0 0.0 9 72
+ 1.829277 3 6 tcp 1040 ------- 1 0.0 4.0 12 60
- 1.829277 3 6 tcp 1040 ------- 1 0.0 4.0 12 60
d 1.829281 5 6 tcp 1040 ------- 1 0.0 4.0 12 60
r 1.838352 6 3 ack 40 ------- 1 4.0 0.0 8 70
+ 1.838352 3 2 ack 40 ------- 1 4.0 0.0 8 70
- 1.838352 3 2 ack 40 ------- 1 4.0 0.0 8 70
r 1.841548 6 4 tcp 1040 ------- 1 0.0 4.0 11 59
h 1.841548 4 6 ack 40 ------- 1 4.0 0.0 11 75
r 1.844744 2 3 tcp 1040 ------- 1 0.0 4.0 14 63
h 1.844744 3 6 tcp 1040 ------- 1 0.0 4.0 14 63
+ 1.853815 4 6 ack 40 ------- 1 4.0 0.0 10 74
- 1.853815 4 6 ack 40 ------- 1 4.0 0.0 10 74
d 1.853819 5 6 ack 40 ------- 1 4.0 0.0 10 74
+ 1.857011 3 6 tcp 1040 ------- 1 0.0 4.0 13 62
- 1.857011 3 6 tcp 1040 ------- 1 0.0 4.0 13 62
d 1.857015 5 6 tcp 1040 ------- 1 0.0 4.0 13 62
r 1.866085 6 3 ack 40 ------- 1 4.0 0.0 9 72
+ 1.866085 3 2 ack 40 ------- 1 4.0 0.0 9 72
- 1.866085 3 2 ack 40 ------- 1 4.0 0.0 9 72
r 1.869281 6 4 tcp 1040 ------- 1 0.0 4.0 12 60
h 1.869281 4 6 ack 40 ------- 1 4.0 0.0 12 77
+ 1.881548 4 6 ack 40 ------- 1 4.0 0.0 11 75
- 1.881548 4 6 ack 40 ------- 1 4.0 0.0 11 75
d 1.881552 5 6 ack 40 ------- 1 4.0 0.0 11 75
+ 1.884744 3 6 tcp 1040 ------- 1 0.0 4.0 14 63
- 1.884744 3 6 tcp 1040 ------- 1 0.0 4.0 14 63
d 1.884748 5 6 tcp 1040 ------- 1 0.0 4.0 14 63
r 1.893819 6 3 ack 40 ------- 1 4.0 0.0 10 74
+ 1.893819 3 2 ack 40 ------- 1 4.0 0.0 10 74
- 1.893819 3 2 ack 40 ------- 1 4.0 0.0 10 74
r 1.897015 6 4 tcp 1040 ------- 1 0.0 4.0 13 62
h 1.897015 4 6 ack 40 ------- 1 4.0 0.0 13 79
+ 1.909281 4 6 ack 40 ------- 1 4.0 0.0 12 77
- 1.909281 4 6 ack 40 ------- 1 4.0 0.0 12 77
d 1.909285 5 6 ack 40 ------- 1 4.0 0.0 12 77
r 1.911685 3 2 ack 40 ------- 1 4.0 0.0 7 68
+ 1.911685 2 0 ack 40 ------- 1 4.0 0.0 7 68
- 1.911685 2 0 ack 40 ------- 1 4.0 0.0 7 68
r 1.921552 6 3 ack 40 ------- 1 4.0 0.0 11 75
+ 1.921552 3 2 ack 40 ------- 1 4.0 0.0 11 75
- 1.921552 3 2 ack 40 ------- 1 4.0 0.0 11 75
r 1.921845 2 0 ack 40 ------- 1 4.0 0.0 7 68
+ 1.921845 0 2 tcp 1040 ------- 1 0.0 4.0 15 81
- 1.921845 0 2 tcp 1040 ------- 1 0.0 4.0 15 81
+ 1.921845 0 2 tcp 1040 ------- 1 0.0 4.0 16 82
r 1.924748 6 4 tcp 1040 ------- 1 0.0 4.0 14 63
h 1.924748 4 6 ack 40 ------- 1 4.0 0.0 14 83
- 1.926005 0 2 tcp 1040 ------- 1 0.0 4.0 16 82
r 1.936005 0 2 tcp 1040 ------- 1 0.0 4.0 15 81
+ 1.936005 2 3 tcp 1040 ------- 1 0.0 4.0 15 81
- 1.936005 2 3 tcp 1040 ------- 1 0.0 4.0 15 81
+ 1.937015 4 6 ack 40 ------- 1 4.0 0.0 13 79
- 1.937015 4 6 ack 40 ------- 1 4.0 0.0 13 79
d 1.937019 5 6 ack 40 ------- 1 4.0 0.0 13 79
r 1.939419 3 2 ack 40 ------- 1 4.0 0.0 8 70
+ 1.939419 2 0 ack 40 ------- 1 4.0 0.0 8 70
- 1.939419 2 0 ack 40 ------- 1 4.0 0.0 8 70
r 1.940165 0 2 tcp 1040 ------- 1 0.0 4.0 16 82
+ 1.940165 2 3 tcp 1040 ------- 1 0.0 4.0 16 82
r 1.949285 6 3 ack 40 ------- 1 4.0 0.0 12 77
+ 1.949285 3 2 ack 40 ------- 1 4.0 0.0 12 77
- 1.949285 3 2 ack 40 ------- 1 4.0 0.0 12 77
r 1.949579 2 0 ack 40 ------- 1 4.0 0.0 8 70
+ 1.949579 0 2 tcp 1040 ------- 1 0.0 4.0 17 85
- 1.949579 0 2 tcp 1040 ------- 1 0.0 4.0 17 85
+ 1.949579 0 2 tcp 1040 ------- 1 0.0 4.0 18 86
- 1.953739 0 2 tcp 1040 ------- 1 0.0 4.0 18 86
- 1.963739 2 3 tcp 1040 ------- 1 0.0 4.0 16 82
r 1.963739 0 2 tcp 1040 ------- 1 0.0 4.0 17 85
+ 1.963739 2 3 tcp 1040 ------- 1 0.0 4.0 17 85
+ 1.964748 4 6 ack 40 ------- 1 4.0 0.0 14 83
- 1.964748 4 6 ack 40 ------- 1 4.0 0.0 14 83
d 1.964752 5 6 ack 40 ------- 1 4.0 0.0 14 83
r 1.967152 3 2 ack 40 ------- 1 4.0 0.0 9 72
+ 1.967152 2 0 ack 40 ------- 1 4.0 0.0 9 72
- 1.967152 2 0 ack 40 ------- 1 4.0 0.0 9 72
r 1.967899 0 2 tcp 1040 ------- 1 0.0 4.0 18 86
+ 1.967899 2 3 tcp 1040 ------- 1 0.0 4.0 18 86
r 1.977019 6 3 ack 40 ------- 1 4.0 0.0 13 79
+ 1.977019 3 2 ack 40 ------- 1 4.0 0.0 13 79
- 1.977019 3 2 ack 40 ------- 1 4.0 0.0 13 79
r 1.977312 2 0 ack 40 ------- 1 4.0 0.0 9 72
+ 1.977312 0 2 tcp 1040 ------- 1 0.0 4.0 19 87
- 1.977312 0 2 tcp 1040 ------- 1 0.0 4.0 19 87
+ 1.977312 0 2 tcp 1040 ------- 1 0.0 4.0 20 88
- 1.981472 0 2 tcp 1040 ------- 1 0.0 4.0 20 88
- 1.991472 2 3 tcp 1040 ------- 1 0.0 4.0 17 85
r 1.991472 0 2 tcp 1040 ------- 1 0.0 4.0 19 87
+ 1.991472 2 3 tcp 1040 ------- 1 0.0 4.0 19 87
r 1.994885 3 2 ack 40 ------- 1 4.0 0.0 10 74
+ 1.994885 2 0 ack 40 ------- 1 4.0 0.0 10 74
- 1.994885 2 0 ack 40 ------- 1 4.0 0.0 10 74
r 1.995632 0 2 tcp 1040 ------- 1 0.0 4.0 20 88
+ 1.995632 2 3 tcp 1040 ------- 1 0.0 4.0 20 88
r 2.004752 6 3 ack 40 ------- 1 4.0 0.0 14 83
+ 2.004752 3 2 ack 40 ------- 1 4.0 0.0 14 83
- 2.004752 3 2 ack 40 ------- 1 4.0 0.0 14 83
r 2.005045 2 0 ack 40 ------- 1 4.0 0.0 10 74
+ 2.005045 0 2 tcp 1040 ------- 1 0.0 4.0 21 90
- 2.005045 0 2 tcp 1040 ------- 1 0.0 4.0 21 90
+ 2.005045 0 2 tcp 1040 ------- 1 0.0 4.0 22 91
- 2.009205 0 2 tcp 1040 ------- 1 0.0 4.0 22 91
- 2.019205 2 3 tcp 1040 ------- 1 0.0 4.0 18 86
r 2.019205 0 2 tcp 1040 ------- 1 0.0 4.0 21 90
+ 2.019205 2 3 tcp 1040 ------- 1 0.0 4.0 21 90
r 2.022619 3 2 ack 40 ------- 1 4.0 0.0 11 75
+ 2.022619 2 0 ack 40 ------- 1 4.0 0.0 11 75
- 2.022619 2 0 ack 40 ------- 1 4.0 0.0 11 75
r 2.023365 0 2 tcp 1040 ------- 1 0.0 4.0 22 91
+ 2.023365 2 3 tcp 1040 ------- 1 0.0 4.0 22 91
r 2.032779 2 0 ack 40 ------- 1 4.0 0.0 11 75
+ 2.032779 0 2 tcp 1040 ------- 1 0.0 4.0 23 93
- 2.032779 0 2 tcp 1040 ------- 1 0.0 4.0 23 93
+ 2.032779 0 2 tcp 1040 ------- 1 0.0 4.0 24 94
- 2.036939 0 2 tcp 1040 ------- 1 0.0 4.0 24 94
- 2.046939 2 3 tcp 1040 ------- 1 0.0 4.0 19 87
r 2.046939 0 2 tcp 1040 ------- 1 0.0 4.0 23 93
+ 2.046939 2 3 tcp 1040 ------- 1 0.0 4.0 23 93
r 2.050352 3 2 ack 40 ------- 1 4.0 0.0 12 77
+ 2.050352 2 0 ack 40 ------- 1 4.0 0.0 12 77
- 2.050352 2 0 ack 40 ------- 1 4.0 0.0 12 77
r 2.051099 0 2 tcp 1040 ------- 1 0.0 4.0 24 94
+ 2.051099 2 3 tcp 1040 ------- 1 0.0 4.0 24 94
r 2.060512 2 0 ack 40 ------- 1 4.0 0.0 12 77
+ 2.060512 0 2 tcp 1040 ------- 1 0.0 4.0 25 96
- 2.060512 0 2 tcp 1040 ------- 1 0.0 4.0 25 96
+ 2.060512 0 2 tcp 1040 ------- 1 0.0 4.0 26 97
r 2.063739 2 3 tcp 1040 ------- 1 0.0 4.0 15 81
h 2.063739 3 6 tcp 1040 ------- 1 0.0 4.0 15 81
- 2.064672 0 2 tcp 1040 ------- 1 0.0 4.0 26 97
- 2.074672 2 3 tcp 1040 ------- 1 0.0 4.0 20 88
r 2.074672 0 2 tcp 1040 ------- 1 0.0 4.0 25 96
+ 2.074672 2 3 tcp 1040 ------- 1 0.0 4.0 25 96
r 2.078085 3 2 ack 40 ------- 1 4.0 0.0 13 79
+ 2.078085 2 0 ack 40 ------- 1 4.0 0.0 13 79
- 2.078085 2 0 ack 40 ------- 1 4.0 0.0 13 79
r 2.078832 0 2 tcp 1040 ------- 1 0.0 4.0 26 97
+ 2.078832 2 3 tcp 1040 ------- 1 0.0 4.0 26 97
r 2.088245 2 0 ack 40 ------- 1 4.0 0.0 13 79
+ 2.088245 0 2 tcp 1040 ------- 1 0.0 4.0 27 99
- 2.088245 0 2 tcp 1040 ------- 1 0.0 4.0 27 99
+ 2.088245 0 2 tcp 1040 ------- 1 0.0 4.0 28 100
r 2.091472 2 3 tcp 1040 ------- 1 0.0 4.0 16 82
h 2.091472 3 6 tcp 1040 ------- 1 0.0 4.0 16 82
- 2.092405 0 2 tcp 1040 ------- 1 0.0 4.0 28 100
- 2.102405 2 3 tcp 1040 ------- 1 0.0 4.0 21 90
r 2.102405 0 2 tcp 1040 ------- 1 0.0 4.0 27 99
+ 2.102405 2 3 tcp 1040 ------- 1 0.0 4.0 27 99
+ 2.103739 3 6 tcp 1040 ------- 1 0.0 4.0 15 81
- 2.103739 3 6 tcp 1040 ------- 1 0.0 4.0 15 81
d 2.103743 5 6 tcp 1040 ------- 1 0.0 4.0 15 81
r 2.105819 3 2 ack 40 ------- 1 4.0 0.0 14 83
+ 2.105819 2 0 ack 40 ------- 1 4.0 0.0 14 83
- 2.105819 2 0 ack 40 ------- 1 4.0 0.0 14 83
r 2.106565 0 2 tcp 1040 ------- 1 0.0 4.0 28 100
+ 2.106565 2 3 tcp 1040 ------- 1 0.0 4.0 28 100
r 2.115979 2 0 ack 40 ------- 1 4.0 0.0 14 83
+ 2.115979 0 2 tcp 1040 ------- 1 0.0 4.0 29 102
- 2.115979 0 2 tcp 1040 ------- 1 0.0 4.0 29 102
+ 2.115979 0 2 tcp 1040 ------- 1 0.0 4.0 30 103
r 2.119205 2 3 tcp 1040 ------- 1 0.0 4.0 17 85
h 2.119205 3 6 tcp 1040 ------- 1 0.0 4.0 17 85
- 2.120139 0 2 tcp 1040 ------- 1 0.0 4.0 30 103
- 2.130139 2 3 tcp 1040 ------- 1 0.0 4.0 22 91
r 2.130139 0 2 tcp 1040 ------- 1 0.0 4.0 29 102
+ 2.130139 2 3 tcp 1040 ------- 1 0.0 4.0 29 102
+ 2.131472 3 6 tcp 1040 ------- 1 0.0 4.0 16 82
- 2.131472 3 6 tcp 1040 ------- 1 0.0 4.0 16 82
d 2.131476 5 6 tcp 1040 ------- 1 0.0 4.0 16 82
r 2.134299 0 2 tcp 1040 ------- 1 0.0 4.0 30 103
+ 2.134299 2 3 tcp 1040 ------- 1 0.0 4.0 30 103
r 2.143743 6 4 tcp 1040 ------- 1 0.0 4.0 15 81
h 2.143743 4 6 ack 40 ------- 1 4.0 0.0 15 104
r 2.146939 2 3 tcp 1040 ------- 1 0.0 4.0 18 86
h 2.146939 3 6 tcp 1040 ------- 1 0.0 4.0 18 86
- 2.157872 2 3 tcp 1040 ------- 1 0.0 4.0 23 93
+ 2.159205 3 6 tcp 1040 ------- 1 0.0 4.0 17 85
- 2.159205 3 6 tcp 1040 ------- 1 0.0 4.0 17 85
d 2.159209 5 6 tcp 1040 ------- 1 0.0 4.0 17 85
r 2.171476 6 4 tcp 1040 ------- 1 0.0 4.0 16 82
h 2.171476 4 6 ack 40 ------- 1 4.0 0.0 16 106
r 2.174672 2 3 tcp 1040 ------- 1 0.0 4.0 19 87
h 2.174672 3 6 tcp 1040 ------- 1 0.0 4.0 19 87
+ 2.183743 4 6 ack 40 ------- 1 4.0 0.0 15 104
- 2.183743 4 6 ack 40 ------- 1 4.0 0.0 15 104
d 2.183747 5 6 ack 40 ------- 1 4.0 0.0 15 104
- 2.185605 2 3 tcp 1040 ------- 1 0.0 4.0 24 94
+ 2.186939 3 6 tcp 1040 ------- 1 0.0 4.0 18 86
- 2.186939 3 6 tcp 1040 ------- 1 0.0 4.0 18 86
d 2.186943 5 6 tcp 1040 ------- 1 0.0 4.0 18 86
r 2.199209 6 4 tcp 1040 ------- 1 0.0 4.0 17 85
h 2.199209 4 6 ack 40 ------- 1 4.0 0.0 17 108
r 2.202405 2 3 tcp 1040 ------- 1 0.0 4.0 20 88
h 2.202405 3 6 tcp 1040 ------- 1 0.0 4.0 20 88
+ 2.211476 4 6 ack 40 ------- 1 4.0 0.0 16 106
- 2.211476 4 6 ack 40 ------- 1 4.0 0.0 16 106
d 2.21148 5 6 ack 40 ------- 1 4.0 0.0 16 106
- 2.213339 2 3 tcp 1040 ------- 1 0.0 4.0 25 96
+ 2.214672 3 6 tcp 1040 ------- 1 0.0 4.0 19 87
- 2.214672 3 6 tcp 1040 ------- 1 0.0 4.0 19 87
d 2.214676 5 6 tcp 1040 ------- 1 0.0 4.0 19 87
r 2.223747 6 3 ack 40 ------- 1 4.0 0.0 15 104
+ 2.223747 3 2 ack 40 ------- 1 4.0 0.0 15 104
- 2.223747 3 2 ack 40 ------- 1 4.0 0.0 15 104
r 2.226943 6 4 tcp 1040 ------- 1 0.0 4.0 18 86
h 2.226943 4 6 ack 40 ------- 1 4.0 0.0 18 110
r 2.230139 2 3 tcp 1040 ------- 1 0.0 4.0 21 90
h 2.230139 3 6 tcp 1040 ------- 1 0.0 4.0 21 90
+ 2.239209 4 6 ack 40 ------- 1 4.0 0.0 17 108
- 2.239209 4 6 ack 40 ------- 1 4.0 0.0 17 108
d 2.239213 5 6 ack 40 ------- 1 4.0 0.0 17 108
- 2.241072 2 3 tcp 1040 ------- 1 0.0 4.0 26 97
+ 2.242405 3 6 tcp 1040 ------- 1 0.0 4.0 20 88
- 2.242405 3 6 tcp 1040 ------- 1 0.0 4.0 20 88
d 2.242409 5 6 tcp 1040 ------- 1 0.0 4.0 20 88
r 2.25148 6 3 ack 40 ------- 1 4.0 0.0 16 106
+ 2.25148 3 2 ack 40 ------- 1 4.0 0.0 16 106
- 2.25148 3 2 ack 40 ------- 1 4.0 0.0 16 106
r 2.254676 6 4 tcp 1040 ------- 1 0.0 4.0 19 87
h 2.254676 4 6 ack 40 ------- 1 4.0 0.0 19 112
r 2.257872 2 3 tcp 1040 ------- 1 0.0 4.0 22 91
h 2.257872 3 6 tcp 1040 ------- 1 0.0 4.0 22 91
+ 2.266943 4 6 ack 40 ------- 1 4.0 0.0 18 110
- 2.266943 4 6 ack 40 ------- 1 4.0 0.0 18 110
d 2.266947 5 6 ack 40 ------- 1 4.0 0.0 18 110
- 2.268805 2 3 tcp 1040 ------- 1 0.0 4.0 27 99
+ 2.270139 3 6 tcp 1040 ------- 1 0.0 4.0 21 90
- 2.270139 3 6 tcp 1040 ------- 1 0.0 4.0 21 90
d 2.270143 5 6 tcp 1040 ------- 1 0.0 4.0 21 90
r 2.279213 6 3 ack 40 ------- 1 4.0 0.0 17 108
+ 2.279213 3 2 ack 40 ------- 1 4.0 0.0 17 108
- 2.279213 3 2 ack 40 ------- 1 4.0 0.0 17 108
r 2.282409 6 4 tcp 1040 ------- 1 0.0 4.0 20 88
h 2.282409 4 6 ack 40 ------- 1 4.0 0.0 20 113
r 2.285605 2 3 tcp 1040 ------- 1 0.0 4.0 23 93
h 2.285605 3 6 tcp 1040 ------- 1 0.0 4.0 23 93
+ 2.294676 4 6 ack 40 ------- 1 4.0 0.0 19 112
- 2.294676 4 6 ack 40 ------- 1 4.0 0.0 19 112
d 2.29468 5 6 ack 40 ------- 1 4.0 0.0 19 112
- 2.296539 2 3 tcp 1040 ------- 1 0.0 4.0 28 100
+ 2.297872 3 6 tcp 1040 ------- 1 0.0 4.0 22 91
- 2.297872 3 6 tcp 1040 ------- 1 0.0 4.0 22 91
d 2.297876 5 6 tcp 1040 ------- 1 0.0 4.0 22 91
r 2.306947 6 3 ack 40 ------- 1 4.0 0.0 18 110
+ 2.306947 3 2 ack 40 ------- 1 4.0 0.0 18 110
- 2.306947 3 2 ack 40 ------- 1 4.0 0.0 18 110
r 2.310143 6 4 tcp 1040 ------- 1 0.0 4.0 21 90
h 2.310143 4 6 ack 40 ------- 1 4.0 0.0 21 115
r 2.313339 2 3 tcp 1040 ------- 1 0.0 4.0 24 94
h 2.313339 3 6 tcp 1040 ------- 1 0.0 4.0 24 94
+ 2.322409 4 6 ack 40 ------- 1 4.0 0.0 20 113
- 2.322409 4 6 ack 40 ------- 1 4.0 0.0 20 113
d 2.322413 5 6 ack 40 ------- 1 4.0 0.0 20 113
- 2.324272 2 3 tcp 1040 ------- 1 0.0 4.0 29 102
r 2.324813 3 2 ack 40 ------- 1 4.0 0.0 15 104
+ 2.324813 2 0 ack 40 ------- 1 4.0 0.0 15 104
- 2.324813 2 0 ack 40 ------- 1 4.0 0.0 15 104
+ 2.325605 3 6 tcp 1040 ------- 1 0.0 4.0 23 93
- 2.325605 3 6 tcp 1040 ------- 1 0.0 4.0 23 93
d 2.325609 5 6 tcp 1040 ------- 1 0.0 4.0 23 93
r 2.33468 6 3 ack 40 ------- 1 4.0 0.0 19 112
+ 2.33468 3 2 ack 40 ------- 1 4.0 0.0 19 112
- 2.33468 3 2 ack 40 ------- 1 4.0 0.0 19 112
r 2.334973 2 0 ack 40 ------- 1 4.0 0.0 15 104
+ 2.334973 0 2 tcp 1040 ------- 1 0.0 4.0 31 117
- 2.334973 0 2 tcp 1040 ------- 1 0.0 4.0 31 117
+ 2.334973 0 2 tcp 1040 ------- 1 0.0 4.0 32 118
r 2.337876 6 4 tcp 1040 ------- 1 0.0 4.0 22 91
h 2.337876 4 6 ack 40 ------- 1 4.0 0.0 22 119
- 2.339133 0 2 tcp 1040 ------- 1 0.0 4.0 32 118
r 2.341072 2 3 tcp 1040 ------- 1 0.0 4.0 25 96
h 2.341072 3 6 tcp 1040 ------- 1 0.0 4.0 25 96
r 2.349133 0 2 tcp 1040 ------- 1 0.0 4.0 31 117
+ 2.349133 2 3 tcp 1040 ------- 1 0.0 4.0 31 117
+ 2.350143 4 6 ack 40 ------- 1 4.0 0.0 21 115
- 2.350143 4 6 ack 40 ------- 1 4.0 0.0 21 115
d 2.350147 5 6 ack 40 ------- 1 4.0 0.0 21 115
- 2.352005 2 3 tcp 1040 ------- 1 0.0 4.0 30 103
r 2.352547 3 2 ack 40 ------- 1 4.0 0.0 16 106
+ 2.352547 2 0 ack 40 ------- 1 4.0 0.0 16 106
- 2.352547 2 0 ack 40 ------- 1 4.0 0.0 16 106
r 2.353293 0 2 tcp 1040 ------- 1 0.0 4.0 32 118
+ 2.353293 2 3 tcp 1040 ------- 1 0.0 4.0 32 118
+ 2.353339 3 6 tcp 1040 ------- 1 0.0 4.0 24 94
- 2.353339 3 6 tcp 1040 ------- 1 0.0 4.0 24 94
d 2.353343 5 6 tcp 1040 ------- 1 0.0 4.0 24 94
r 2.362413 6 3 ack 40 ------- 1 4.0 0.0 20 113
+ 2.362413 3 2 ack 40 ------- 1 4.0 0.0 20 113
- 2.362413 3 2 ack 40 ------- 1 4.0 0.0 20 113
r 2.362707 2 0 ack 40 ------- 1 4.0 0.0 16 106
+ 2.362707 0 2 tcp 1040 ------- 1 0.0 4.0 33 121
- 2.362707 0 2 tcp 1040 ------- 1 0.0 4.0 33 121
+ 2.362707 0 2 tcp 1040 ------- 1 0.0 4.0 34 122
r 2.365609 6 4 tcp 1040 ------- 1 0.0 4.0 23 93
h 2.365609 4 6 ack 40 ------- 1 4.0 0.0 23 123
- 2.366867 0 2 tcp 1040 ------- 1 0.0 4.0 34 122
r 2.368805 2 3 tcp 1040 ------- 1 0.0 4.0 26 97
h 2.368805 3 6 tcp 1040 ------- 1 0.0 4.0 26 97
r 2.376867 0 2 tcp 1040 ------- 1 0.0 4.0 33 121
+ 2.376867 2 3 tcp 1040 ------- 1 0.0 4.0 33 121
+ 2.377876 4 6 ack 40 ------- 1 4.0 0.0 22 119
- 2.377876 4 6 ack 40 ------- 1 4.0 0.0 22 119
d 2.37788 5 6 ack 40 ------- 1 4.0 0.0 22 119
- 2.379739 2 3 tcp 1040 ------- 1 0.0 4.0 31 117
r 2.38028 3 2 ack 40 ------- 1 4.0 0.0 17 108
+ 2.38028 2 0 ack 40 ------- 1 4.0 0.0 17 108
- 2.38028 2 0 ack 40 ------- 1 4.0 0.0 17 108
r 2.381027 0 2 tcp 1040 ------- 1 0.0 4.0 34 122
+ 2.381027 2 3 tcp 1040 ------- 1 0.0 4.0 34 122
+ 2.381072 3 6 tcp 1040 ------- 1 0.0 4.0 25 96
- 2.381072 3 6 tcp 1040 ------- 1 0.0 4.0 25 96
d 2.381076 5 6 tcp 1040 ------- 1 0.0 4.0 25 96
r 2.390147 6 3 ack 40 ------- 1 4.0 0.0 21 115
+ 2.390147 3 2 ack 40 ------- 1 4.0 0.0 21 115
- 2.390147 3 2 ack 40 ------- 1 4.0 0.0 21 115
r 2.39044 2 0 ack 40 ------- 1 4.0 0.0 17 108
+ 2.39044 0 2 tcp 1040 ------- 1 0.0 4.0 35 125
- 2.39044 0 2 tcp 1040 ------- 1 0.0 4.0 35 125
+ 2.39044 0 2 tcp 1040 ------- 1 0.0 4.0 36 126
r 2.393343 6 4 tcp 1040 ------- 1 0.0 4.0 24 94
h 2.393343 4 6 ack 40 ------- 1 4.0 0.0 24 127
- 2.3946 0 2 tcp 1040 ------- 1 0.0 4.0 36 126
r 2.396539 2 3 tcp 1040 ------- 1 0.0 4.0 27 99
h 2.396539 3 6 tcp 1040 ------- 1 0.0 4.0 27 99
r 2.4046 0 2 tcp 1040 ------- 1 0.0 4.0 35 125
+ 2.4046 2 3 tcp 1040 ------- 1 0.0 4.0 35 125
+ 2.405609 4 6 ack 40 ------- 1 4.0 0.0 23 123
- 2.405609 4 6 ack 40 ------- 1 4.0 0.0 23 123
d 2.405613 5 6 ack 40 ------- 1 4.0 0.0 23 123
- 2.407472 2 3 tcp 1040 ------- 1 0.0 4.0 32 118
r 2.408013 3 2 ack 40 ------- 1 4.0 0.0 18 110
+ 2.408013 2 0 ack 40 ------- 1 4.0 0.0 18 110
- 2.408013 2 0 ack 40 ------- 1 4.0 0.0 18 110
r 2.40876 0 2 tcp 1040 ------- 1 0.0 4.0 36 126
+ 2.40876 2 3 tcp 1040 ------- 1 0.0 4.0 36 126
+ 2.408805 3 6 tcp 1040 ------- 1 0.0 4.0 26 97
- 2.408805 3 6 tcp 1040 ------- 1 0.0 4.0 26 97
d 2.408809 5 6 tcp 1040 ------- 1 0.0 4.0 26 97
r 2.41788 6 3 ack 40 ------- 1 4.0 0.0 22 119
+ 2.41788 3 2 ack 40 ------- 1 4.0 0.0 22 119
- 2.41788 3 2 ack 40 ------- 1 4.0 0.0 22 119
r 2.418173 2 0 ack 40 ------- 1 4.0 0.0 18 110
+ 2.418173 0 2 tcp 1040 ------- 1 0.0 4.0 37 129
- 2.418173 0 2 tcp 1040 ------- 1 0.0 4.0 37 129
+ 2.418173 0 2 tcp 1040 ------- 1 0.0 4.0 38 130
r 2.421076 6 4 tcp 1040 ------- 1 0.0 4.0 25 96
h 2.421076 4 6 ack 40 ------- 1 4.0 0.0 25 131
- 2.422333 0 2 tcp 1040 ------- 1 0.0 4.0 38 130
r 2.424272 2 3 tcp 1040 ------- 1 0.0 4.0 28 100
h 2.424272 3 6 tcp 1040 ------- 1 0.0 4.0 28 100
r 2.432333 0 2 tcp 1040 ------- 1 0.0 4.0 37 129
+ 2.432333 2 3 tcp 1040 ------- 1 0.0 4.0 37 129
+ 2.433343 4 6 ack 40 ------- 1 4.0 0.0 24 127
- 2.433343 4 6 ack 40 ------- 1 4.0 0.0 24 127
d 2.433347 5 6 ack 40 ------- 1 4.0 0.0 24 127
- 2.435205 2 3 tcp 1040 ------- 1 0.0 4.0 33 121
r 2.435747 3 2 ack 40 ------- 1 4.0 0.0 19 112
+ 2.435747 2 0 ack 40 ------- 1 4.0 0.0 19 112
- 2.435747 2 0 ack 40 ------- 1 4.0 0.0 19 112
r 2.436493 0 2 tcp 1040 ------- 1 0.0 4.0 38 130
+ 2.436493 2 3 tcp 1040 ------- 1 0.0 4.0 38 130
+ 2.436539 3 6 tcp 1040 ------- 1 0.0 4.0 27 99
- 2.436539 3 6 tcp 1040 ------- 1 0.0 4.0 27 99
d 2.436543 5 6 tcp 1040 ------- 1 0.0 4.0 27 99
r 2.445613 6 3 ack 40 ------- 1 4.0 0.0 23 123
+ 2.445613 3 2 ack 40 ------- 1 4.0 0.0 23 123
- 2.445613 3 2 ack 40 ------- 1 4.0 0.0 23 123
r 2.445907 2 0 ack 40 ------- 1 4.0 0.0 19 112
+ 2.445907 0 2 tcp 1040 ------- 1 0.0 4.0 39 132
- 2.445907 0 2 tcp 1040 ------- 1 0.0 4.0 39 132
r 2.448809 6 4 tcp 1040 ------- 1 0.0 4.0 26 97
h 2.448809 4 6 ack 40 ------- 1 4.0 0.0 26 133
r 2.452005 2 3 tcp 1040 ------- 1 0.0 4.0 29 102
h 2.452005 3 6 tcp 1040 ------- 1 0.0 4.0 29 102
r 2.460067 0 2 tcp 1040 ------- 1 0.0 4.0 39 132
+ 2.460067 2 3 tcp 1040 ------- 1 0.0 4.0 39 132
+ 2.461076 4 6 ack 40 ------- 1 4.0 0.0 25 131
- 2.461076 4 6 ack 40 ------- 1 4.0 0.0 25 131
d 2.46108 5 6 ack 40 ------- 1 4.0 0.0 25 131
- 2.462939 2 3 tcp 1040 ------- 1 0.0 4.0 34 122
r 2.46348 3 2 ack 40 ------- 1 4.0 0.0 20 113
+ 2.46348 2 0 ack 40 ------- 1 4.0 0.0 20 113
- 2.46348 2 0 ack 40 ------- 1 4.0 0.0 20 113
+ 2.464272 3 6 tcp 1040 ------- 1 0.0 4.0 28 100
- 2.464272 3 6 tcp 1040 ------- 1 0.0 4.0 28 100
d 2.464276 5 6 tcp 1040 ------- 1 0.0 4.0 28 100
r 2.473347 6 3 ack 40 ------- 1 4.0 0.0 24 127
+ 2.473347 3 2 ack 40 ------- 1 4.0 0.0 24 127
- 2.473347 3 2 ack 40 ------- 1 4.0 0.0 24 127
r 2.47364 2 0 ack 40 ------- 1 4.0 0.0 20 113
+ 2.47364 0 2 tcp 1040 ------- 1 0.0 4.0 40 135
- 2.47364 0 2 tcp 1040 ------- 1 0.0 4.0 40 135
r 2.476543 6 4 tcp 1040 ------- 1 0.0 4.0 27 99
h 2.476543 4 6 ack 40 ------- 1 4.0 0.0 27 136
r 2.479739 2 3 tcp 1040 ------- 1 0.0 4.0 30 103