V -t * -v 1.0a5 -a 0
A -t * -n 1 -p 0 -o 0x7fffffff -c 30 -a 1
A -t * -h 1 -m 1073741823 -s 0
c -t * -i 1 -n Blue
c -t * -i 2 -n Red
n -t * -a 4 -s 4 -S UP -v circle -c Blue -i Blue
n -t * -a 0 -s 0 -S UP -v circle -c Blue -i Blue
n -t * -a 5 -s 5 -S UP -v box -c Red -i Red
n -t * -a 1 -s 1 -S UP -v box -c Red -i Red
n -t * -a 2 -s 2 -S UP -v circle -c black -i black
n -t * -a 3 -s 3 -S UP -v circle -c black -i black
l -t * -s 0 -d 2 -S UP -r 2000000 -D 0.01 -c black -o right-down
l -t * -s 1 -d 2 -S UP -r 2000000 -D 0.01 -c black -o right-up
l -t * -s 2 -d 3 -S UP -r 300000 -D 0.10000000000000001 -c black -o right
X -t * -n 6 -r 0.5Mb -D 40ms -o left
L -t * -s 6 -d 3 -o up
L -t * -s 6 -d 4 -o down
L -t * -s 6 -d 5 -o up
n -t 0 -s 0 -S DLABEL -l "TCP_Traffic" -L ""
n -t 0 -s 1 -S DLABEL -l "UDP_Traffic" -L ""
+ -t 0.3 -s 1 -d 2 -p cbr -e 1000 -c 2 -i 0 -a 2 -x {1.0 5.0 0 ------- null}
- -t 0.3 -s 1 -d 2 -p cbr -e 1000 -c 2 -i 0 -a 2 -x {1.0 5.0 0 ------- null}
h -t 0.3 -s 1 -d 2 -p cbr -e 1000 -c 2 -i 0 -a 2 -x {1.0 5.0 -1 ------- null}
r -t 0.314 -s 1 -d 2 -p cbr -e 1000 -c 2 -i 0 -a 2 -x {1.0 5.0 0 ------- null}
+ -t 0.314 -s 2 -d 3 -p cbr -e 1000 -c 2 -i 0 -a 2 -x {1.0 5.0 0 ------- null}
- -t 0.314 -s 2 -d 3 -p cbr -e 1000 -c 2 -i 0 -a 2 -x {1.0 5.0 0 ------- null}
h -t 0.314 -s 2 -d 3 -p cbr -e 1000 -c 2 -i 0 -a 2 -x {1.0 5.0 -1 ------- null}
r -t 0.440666666666667 -s 2 -d 3 -p cbr -e 1000 -c 2 -i 0 -a 2 -x {1.0 5.0 0 ------- null}
h -t 0.440666666666667 -s 3 -d 6 -p cbr -e 1000 -c 2 -i 0 -a 2 -x {1.0 5.0 0 ------- null}
+ -t 0.46 -s 1 -d 2 -p cbr -e 1000 -c 2 -i 1 -a 2 -x {1.0 5.0 1 ------- null}
- -t 0.46 -s 1 -d 2 -p cbr -e 1000 -c 2 -i 1 -a 2 -x {1.0 5.0 1 ------- null}
h -t 0.46 -s 1 -d 2 -p cbr -e 1000 -c 2 -i 1 -a 2 -x {1.0 5.0 -1 ------- null}
r -t 0.474 -s 1 -d 2 -p cbr -e 1000 -c 2 -i 1 -a 2 -x {1.0 5.0 1 ------- null}
+ -t 0.474 -s 2 -d 3 -p cbr -e 1000 -c 2 -i 1 -a 2 -x {1.0 5.0 1 ------- null}
- -t 0.474 -s 2 -d 3 -p cbr -e 1000 -c 2 -i 1 -a 2 -x {1.0 5.0 1 ------- null}
h -t 0.474 -s 2 -d 3 -p cbr -e 1000 -c 2 -i 1 -a 2 -x {1.0 5.0 -1 ------- null}
+ -t 0.480666666666667 -s 3 -d 6 -p cbr -e 1000 -c 2 -i 0 -a 2 -x {1.0 5.0 0 ------- null}
- -t 0.480666666666667 -s 3 -d 6 -p cbr -e 1000 -c 2 -i 0 -a 2 -x {1.0 5.0 0 ------- null}
h -t 0.480666666666667 -s 3 -d 6 -p cbr -e 1000 -c 2 -i 0 -a 2 -x {1.0 5.0 -1 ------- null}
d -t 0.480670666666667 -s 4 -d 6 -p cbr -e 1000 -c 2 -i 0 -a 2 -x {1.0 5.0 0 ------- null}
r -t 0.520670666666667 -s 6 -d 5 -p cbr -e 1000 -c 2 -i 0 -a 2 -x {1.0 5.0 0 ------- null}
r -t 0.600666666666667 -s 2 -d 3 -p cbr -e 1000 -c 2 -i 1 -a 2 -x {1.0 5.0 1 ------- null}
h -t 0.600666666666667 -s 3 -d 6 -p cbr -e 1000 -c 2 -i 1 -a 2 -x {1.0 5.0 1 ------- null}
+ -t 0.62 -s 1 -d 2 -p cbr -e 1000 -c 2 -i 2 -a 2 -x {1.0 5.0 2 ------- null}
- -t 0.62 -s 1 -d 2 -p cbr -e 1000 -c 2 -i 2 -a 2 -x {1.0 5.0 2 ------- null}
h -t 0.62 -s 1 -d 2 -p cbr -e 1000 -c 2 -i 2 -a 2 -x {1.0 5.0 -1 ------- null}
r -t 0.634 -s 1 -d 2 -p cbr -e 1000 -c 2 -i 2 -a 2 -x {1.0 5.0 2 ------- null}
+ -t 0.634 -s 2 -d 3 -p cbr -e 1000 -c 2 -i 2 -a 2 -x {1.0 5.0 2 ------- null}
- -t 0.634 -s 2 -d 3 -p cbr -e 1000 -c 2 -i 2 -a 2 -x {1.0 5.0 2 ------- null}
h -t 0.634 -s 2 -d 3 -p cbr -e 1000 -c 2 -i 2 -a 2 -x {1.0 5.0 -1 ------- null}
+ -t 0.640666666666667 -s 3 -d 6 -p cbr -e 1000 -c 2 -i 1 -a 2 -x {1.0 5.0 1 ------- null}
- -t 0.640666666666667 -s 3 -d 6 -p cbr -e 1000 -c 2 -i 1 -a 2 -x {1.0 5.0 1 ------- null}
h -t 0.640666666666667 -s 3 -d 6 -p cbr -e 1000 -c 2 -i 1 -a 2 -x {1.0 5.0 -1 ------- null}
d -t 0.640670666666667 -s 4 -d 6 -p cbr -e 1000 -c 2 -i 1 -a 2 -x {1.0 5.0 1 ------- null}
r -t 0.680670666666667 -s 6 -d 5 -p cbr -e 1000 -c 2 -i 1 -a 2 -x {1.0 5.0 1 ------- null}
r -t 0.760666666666667 -s 2 -d 3 -p cbr -e 1000 -c 2 -i 2 -a 2 -x {1.0 5.0 2 ------- null}
h -t 0.760666666666667 -s 3 -d 6 -p cbr -e 1000 -c 2 -i 2 -a 2 -x {1.0 5.0 2 ------- null}
+ -t 0.78 -s 1 -d 2 -p cbr -e 1000 -c 2 -i 3 -a 2 -x {1.0 5.0 3 ------- null}
- -t 0.78 -s 1 -d 2 -p cbr -e 1000 -c 2 -i 3 -a 2 -x {1.0 5.0 3 ------- null}
h -t 0.78 -s 1 -d 2 -p cbr -e 1000 -c 2 -i 3 -a 2 -x {1.0 5.0 -1 ------- null}
r -t 0.794 -s 1 -d 2 -p cbr -e 1000 -c 2 -i 3 -a 2 -x {1.0 5.0 3 ------- null}
+ -t 0.794 -s 2 -d 3 -p cbr -e 1000 -c 2 -i 3 -a 2 -x {1.0 5.0 3 ------- null}
- -t 0.794 -s 2 -d 3 -p cbr -e 1000 -c 2 -i 3 -a 2 -x {1.0 5.0 3 ------- null}
h -t 0.794 -s 2 -d 3 -p cbr -e 1000 -c 2 -i 3 -a 2 -x {1.0 5.0 -1 ------- null}
+ -t 0.8 -s 0 -d 2 -p tcp -e 40 -c 1 -i 4 -a 1 -x {0.0 4.0 0 ------- null}
- -t 0.8 -s 0 -d 2 -p tcp -e 40 -c 1 -i 4 -a 1 -x {0.0 4.0 0 ------- null}
h -t 0.8 -s 0 -d 2 -p tcp -e 40 -c 1 -i 4 -a 1 -x {0.0 4.0 -1 ------- null}
+ -t 0.800666666666667 -s 3 -d 6 -p cbr -e 1000 -c 2 -i 2 -a 2 -x {1.0 5.0 2 ------- null}
- -t 0.800666666666667 -s 3 -d 6 -p cbr -e 1000 -c 2 -i 2 -a 2 -x {1.0 5.0 2 ------- null}
h -t 0.800666666666667 -s 3 -d 6 -p cbr -e 1000 -c 2 -i 2 -a 2 -x {1.0 5.0 -1 ------- null}
d -t 0.800670666666667 -s 4 -d 6 -p cbr -e 1000 -c 2 -i 2 -a 2 -x {1.0 5.0 2 ------- null}
r -t 0.81016 -s 0 -d 2 -p tcp -e 40 -c 1 -i 4 -a 1 -x {0.0 4.0 0 ------- null}
+ -t 0.81016 -s 2 -d 3 -p tcp -e 40 -c 1 -i 4 -a 1 -x {0.0 4.0 0 ------- null}
- -t 0.820666666666667 -s 2 -d 3 -p tcp -e 40 -c 1 -i 4 -a 1 -x {0.0 4.0 0 ------- null}
h -t 0.820666666666667 -s 2 -d 3 -p tcp -e 40 -c 1 -i 4 -a 1 -x {0.0 4.0 -1 ------- null}
r -t 0.840670666666667 -s 6 -d 5 -p cbr -e 1000 -c 2 -i 2 -a 2 -x {1.0 5.0 2 ------- null}
r -t 0.920666666666667 -s 2 -d 3 -p cbr -e 1000 -c 2 -i 3 -a 2 -x {1.0 5.0 3 ------- null}
h -t 0.920666666666667 -s 3 -d 6 -p cbr -e 1000 -c 2 -i 3 -a 2 -x {1.0 5.0 3 ------- null}
r -t 0.921733333333333 -s 2 -d 3 -p tcp -e 40 -c 1 -i 4 -a 1 -x {0.0 4.0 0 ------- null}
h -t 0.921733333333333 -s 3 -d 6 -p tcp -e 40 -c 1 -i 4 -a 1 -x {0.0 4.0 0 ------- null}
+ -t 0.94 -s 1 -d 2 -p cbr -e 1000 -c 2 -i 5 -a 2 -x {1.0 5.0 4 ------- null}
- -t 0.94 -s 1 -d 2 -p cbr -e 1000 -c 2 -i 5 -a 2 -x {1.0 5.0 4 ------- null}
h -t 0.94 -s 1 -d 2 -p cbr -e 1000 -c 2 -i 5 -a 2 -x {1.0 5.0 -1 ------- null}
r -t 0.954 -s 1 -d 2 -p cbr -e 1000 -c 2 -i 5 -a 2 -x {1.0 5.0 4 ------- null}
+ -t 0.954 -s 2 -d 3 -p cbr -e 1000 -c 2 -i 5 -a 2 -x {1.0 5.0 4 ------- null}
- -t 0.954 -s 2 -d 3 -p cbr -e 1000 -c 2 -i 5 -a 2 -x {1.0 5.0 4 ------- null}
h -t 0.954 -s 2 -d 3 -p cbr -e 1000 -c 2 -i 5 -a 2 -x {1.0 5.0 -1 ------- null}
+ -t 0.960666666666667 -s 3 -d 6 -p cbr -e 1000 -c 2 -i 3 -a 2 -x {1.0 5.0 3 ------- null}
- -t 0.960666666666667 -s 3 -d 6 -p cbr -e 1000 -c 2 -i 3 -a 2 -x {1.0 5.0 3 ------- null}
h -t 0.960666666666667 -s 3 -d 6 -p cbr -e 1000 -c 2 -i 3 -a 2 -x {1.0 5.0 -1 ------- null}
d -t 0.960670666666667 -s 4 -d 6 -p cbr -e 1000 -c 2 -i 3 -a 2 -x {1.0 5.0 3 ------- null}
+ -t 0.961733333333333 -s 3 -d 6 -p tcp -e 40 -c 1 -i 4 -a 1 -x {0.0 4.0 0 ------- null}
- -t 0.964922666666667 -s 3 -d 6 -p tcp -e 40 -c 1 -i 4 -a 1 -x {0.0 4.0 0 ------- null}
h -t 0.964922666666667 -s 3 -d 6 -p tcp -e 40 -c 1 -i 4 -a 1 -x {0.0 4.0 -1 ------- null}
d -t 0.964926666666667 -s 5 -d 6 -p tcp -e 40 -c 1 -i 4 -a 1 -x {0.0 4.0 0 ------- null}
r -t 1.00067066666667 -s 6 -d 5 -p cbr -e 1000 -c 2 -i 3 -a 2 -x {1.0 5.0 3 ------- null}
r -t 1.00492666666667 -s 6 -d 4 -p tcp -e 40 -c 1 -i 4 -a 1 -x {0.0 4.0 0 ------- null}
h -t 1.00492666666667 -s 4 -d 6 -p ack -e 40 -c 1 -i 6 -a 1 -x {4.0 0.0 0 ------- null}
+ -t 1.04492666666667 -s 4 -d 6 -p ack -e 40 -c 1 -i 6 -a 1 -x {4.0 0.0 0 ------- null}
- -t 1.04492666666667 -s 4 -d 6 -p ack -e 40 -c 1 -i 6 -a 1 -x {4.0 0.0 0 ------- null}
h -t 1.04492666666667 -s 4 -d 6 -p ack -e 40 -c 1 -i 6 -a 1 -x {4.0 0.0 -1 ------- null}
d -t 1.04493066666667 -s 5 -d 6 -p ack -e 40 -c 1 -i 6 -a 1 -x {4.0 0.0 0 ------- null}
r -t 1.08066666666667 -s 2 -d 3 -p cbr -e 1000 -c 2 -i 5 -a 2 -x {1.0 5.0 4 ------- null}
h -t 1.08066666666667 -s 3 -d 6 -p cbr -e 1000 -c 2 -i 5 -a 2 -x {1.0 5.0 4 ------- null}
r -t 1.08493066666667 -s 6 -d 3 -p ack -e 40 -c 1 -i 6 -a 1 -x {4.0 0.0 0 ------- null}
+ -t 1.08493066666667 -s 3 -d 2 -p ack -e 40 -c 1 -i 6 -a 1 -x {4.0 0.0 0 ------- null}
- -t 1.08493066666667 -s 3 -d 2 -p ack -e 40 -c 1 -i 6 -a 1 -x {4.0 0.0 0 ------- null}
h -t 1.08493066666667 -s 3 -d 2 -p ack -e 40 -c 1 -i 6 -a 1 -x {4.0 0.0 -1 ------- null}
+ -t 1.1 -s 1 -d 2 -p cbr -e 1000 -c 2 -i 7 -a 2 -x {1.0 5.0 5 ------- null}
- -t 1.1 -s 1 -d 2 -p cbr -e 1000 -c 2 -i 7 -a 2 -x {1.0 5.0 5 ------- null}
h -t 1.1 -s 1 -d 2 -p cbr -e 1000 -c 2 -i 7 -a 2 -x {1.0 5.0 -1 ------- null}
r -t 1.114 -s 1 -d 2 -p cbr -e 1000 -c 2 -i 7 -a 2 -x {1.0 5.0 5 ------- null}
+ -t 1.114 -s 2 -d 3 -p cbr -e 1000 -c 2 -i 7 -a 2 -x {1.0 5.0 5 ------- null}
- -t 1.114 -s 2 -d 3 -p cbr -e 1000 -c 2 -i 7 -a 2 -x {1.0 5.0 5 ------- null}
h -t 1.114 -s 2 -d 3 -p cbr -e 1000 -c 2 -i 7 -a 2 -x {1.0 5.0 -1 ------- null}
+ -t 1.12066666666667 -s 3 -d 6 -p cbr -e 1000 -c 2 -i 5 -a 2 -x {1.0 5.0 4 ------- null}
- -t 1.12066666666667 -s 3 -d 6 -p cbr -e 1000 -c 2 -i 5 -a 2 -x {1.0 5.0 4 ------- null}
h -t 1.12066666666667 -s 3 -d 6 -p cbr -e 1000 -c 2 -i 5 -a 2 -x {1.0 5.0 -1 ------- null}
d -t 1.12067066666667 -s 4 -d 6 -p cbr -e 1000 -c 2 -i 5 -a 2 -x {1.0 5.0 4 ------- null}
r -t 1.16067066666667 -s 6 -d 5 -p cbr -e 1000 -c 2 -i 5 -a 2 -x {1.0 5.0 4 ------- null}
r -t 1.18599733333333 -s 3 -d 2 -p ack -e 40 -c 1 -i 6 -a 1 -x {4.0 0.0 0 ------- null}
+ -t 1.18599733333333 -s 2 -d 0 -p ack -e 40 -c 1 -i 6 -a 1 -x {4.0 0.0 0 ------- null}
- -t 1.18599733333333 -s 2 -d 0 -p ack -e 40 -c 1 -i 6 -a 1 -x {4.0 0.0 0 ------- null}
h -t 1.18599733333333 -s 2 -d 0 -p ack -e 40 -c 1 -i 6 -a 1 -x {4.0 0.0 -1 ------- null}
r -t 1.19615733333333 -s 2 -d 0 -p ack -e 40 -c 1 -i 6 -a 1 -x {4.0 0.0 0 ------- null}
+ -t 1.19615733333333 -s 0 -d 2 -p tcp -e 1040 -c 1 -i 8 -a 1 -x {0.0 4.0 1 ------- null}
- -t 1.19615733333333 -s 0 -d 2 -p tcp -e 1040 -c 1 -i 8 -a 1 -x {0.0 4.0 1 ------- null}
h -t 1.19615733333333 -s 0 -d 2 -p tcp -e 1040 -c 1 -i 8 -a 1 -x {0.0 4.0 -1 ------- null}
+ -t 1.19615733333333 -s 0 -d 2 -p tcp -e 1040 -c 1 -i 9 -a 1 -x {0.0 4.0 2 ------- null}
- -t 1.20031733333333 -s 0 -d 2 -p tcp -e 1040 -c 1 -i 9 -a 1 -x {0.0 4.0 2 ------- null}
h -t 1.20031733333333 -s 0 -d 2 -p tcp -e 1040 -c 1 -i 9 -a 1 -x {0.0 4.0 -1 ------- null}
r -t 1.21031733333333 -s 0 -d 2 -p tcp -e 1040 -c 1 -i 8 -a 1 -x {0.0 4.0 1 ------- null}
+ -t 1.21031733333333 -s 2 -d 3 -p tcp -e 1040 -c 1 -i 8 -a 1 -x {0.0 4.0 1 ------- null}
- -t 1.21031733333333 -s 2 -d 3 -p tcp -e 1040 -c 1 -i 8 -a 1 -x {0.0 4.0 1 ------- null}
h -t 1.21031733333333 -s 2 -d 3 -p tcp -e 1040 -c 1 -i 8 -a 1 -x {0.0 4.0 -1 ------- null}
r -t 1.21447733333333 -s 0 -d 2 -p tcp -e 1040 -c 1 -i 9 -a 1 -x {0.0 4.0 2 ------- null}
+ -t 1.21447733333333 -s 2 -d 3 -p tcp -e 1040 -c 1 -i 9 -a 1 -x {0.0 4.0 2 ------- null}
- -t 1.23805066666667 -s 2 -d 3 -p tcp -e 1040 -c 1 -i 9 -a 1 -x {0.0 4.0 2 ------- null}
h -t 1.23805066666667 -s 2 -d 3 -p tcp -e 1040 -c 1 -i 9 -a 1 -x {0.0 4.0 -1 ------- null}
r -t 1.24066666666667 -s 2 -d 3 -p cbr -e 1000 -c 2 -i 7 -a 2 -x {1.0 5.0 5 ------- null}
h -t 1.24066666666667 -s 3 -d 6 -p cbr -e 1000 -c 2 -i 7 -a 2 -x {1.0 5.0 5 ------- null}
+ -t 1.26 -s 1 -d 2 -p cbr -e 1000 -c 2 -i 10 -a 2 -x {1.0 5.0 6 ------- null}
- -t 1.26 -s 1 -d 2 -p cbr -e 1000 -c 2 -i 10 -a 2 -x {1.0 5.0 6 ------- null}
h -t 1.26 -s 1 -d 2 -p cbr -e 1000 -c 2 -i 10 -a 2 -x {1.0 5.0 -1 ------- null}
r -t 1.274 -s 1 -d 2 -p cbr -e 1000 -c 2 -i 10 -a 2 -x {1.0 5.0 6 ------- null}
+ -t 1.274 -s 2 -d 3 -p cbr -e 1000 -c 2 -i 10 -a 2 -x {1.0 5.0 6 ------- null}
- -t 1.274 -s 2 -d 3 -p cbr -e 1000 -c 2 -i 10 -a 2 -x {1.0 5.0 6 ------- null}
h -t 1.274 -s 2 -d 3 -p cbr -e 1000 -c 2 -i 10 -a 2 -x {1.0 5.0 -1 ------- null}
+ -t 1.28066666666667 -s 3 -d 6 -p cbr -e 1000 -c 2 -i 7 -a 2 -x {1.0 5.0 5 ------- null}
- -t 1.28066666666667 -s 3 -d 6 -p cbr -e 1000 -c 2 -i 7 -a 2 -x {1.0 5.0 5 ------- null}
h -t 1.28066666666667 -s 3 -d 6 -p cbr -e 1000 -c 2 -i 7 -a 2 -x {1.0 5.0 -1 ------- null}
d -t 1.28067066666667 -s 4 -d 6 -p cbr -e 1000 -c 2 -i 7 -a 2 -x {1.0 5.0 5 ------- null}
r -t 1.32067066666667 -s 6 -d 5 -p cbr -e 1000 -c 2 -i 7 -a 2 -x {1.0 5.0 5 ------- null}
r -t 1.33805066666667 -s 2 -d 3 -p tcp -e 1040 -c 1 -i 8 -a 1 -x {0.0 4.0 1 ------- null}
h -t 1.33805066666667 -s 3 -d 6 -p tcp -e 1040 -c 1 -i 8 -a 1 -x {0.0 4.0 1 ------- null}
r -t 1.365784 -s 2 -d 3 -p tcp -e 1040 -c 1 -i 9 -a 1 -x {0.0 4.0 2 ------- null}
h -t 1.365784 -s 3 -d 6 -p tcp -e 1040 -c 1 -i 9 -a 1 -x {0.0 4.0 2 ------- null}
+ -t 1.37805066666667 -s 3 -d 6 -p tcp -e 1040 -c 1 -i 8 -a 1 -x {0.0 4.0 1 ------- null}
- -t 1.37805066666667 -s 3 -d 6 -p tcp -e 1040 -c 1 -i 8 -a 1 -x {0.0 4.0 1 ------- null}
h -t 1.37805066666667 -s 3 -d 6 -p tcp -e 1040 -c 1 -i 8 -a 1 -x {0.0 4.0 -1 ------- null}
d -t 1.37805466666667 -s 5 -d 6 -p tcp -e 1040 -c 1 -i 8 -a 1 -x {0.0 4.0 1 ------- null}
r -t 1.40066666666667 -s 2 -d 3 -p cbr -e 1000 -c 2 -i 10 -a 2 -x {1.0 5.0 6 ------- null}
h -t 1.40066666666667 -s 3 -d 6 -p cbr -e 1000 -c 2 -i 10 -a 2 -x {1.0 5.0 6 ------- null}
+ -t 1.405784 -s 3 -d 6 -p tcp -e 1040 -c 1 -i 9 -a 1 -x {0.0 4.0 2 ------- null}
- -t 1.405784 -s 3 -d 6 -p tcp -e 1040 -c 1 -i 9 -a 1 -x {0.0 4.0 2 ------- null}
h -t 1.405784 -s 3 -d 6 -p tcp -e 1040 -c 1 -i 9 -a 1 -x {0.0 4.0 -1 ------- null}
d -t 1.405788 -s 5 -d 6 -p tcp -e 1040 -c 1 -i 9 -a 1 -x {0.0 4.0 2 ------- null}
r -t 1.41805466666667 -s 6 -d 4 -p tcp -e 1040 -c 1 -i 8 -a 1 -x {0.0 4.0 1 ------- null}
+ -t 1.42 -s 1 -d 2 -p cbr -e 1000 -c 2 -i 11 -a 2 -x {1.0 5.0 7 ------- null}
- -t 1.42 -s 1 -d 2 -p cbr -e 1000 -c 2 -i 11 -a 2 -x {1.0 5.0 7 ------- null}
h -t 1.42 -s 1 -d 2 -p cbr -e 1000 -c 2 -i 11 -a 2 -x {1.0 5.0 -1 ------- null}
r -t 1.434 -s 1 -d 2 -p cbr -e 1000 -c 2 -i 11 -a 2 -x {1.0 5.0 7 ------- null}
+ -t 1.434 -s 2 -d 3 -p cbr -e 1000 -c 2 -i 11 -a 2 -x {1.0 5.0 7 ------- null}
- -t 1.434 -s 2 -d 3 -p cbr -e 1000 -c 2 -i 11 -a 2 -x {1.0 5.0 7 ------- null}
h -t 1.434 -s 2 -d 3 -p cbr -e 1000 -c 2 -i 11 -a 2 -x {1.0 5.0 -1 ------- null}
+ -t 1.44066666666667 -s 3 -d 6 -p cbr -e 1000 -c 2 -i 10 -a 2 -x {1.0 5.0 6 ------- null}
- -t 1.44066666666667 -s 3 -d 6 -p cbr -e 1000 -c 2 -i 10 -a 2 -x {1.0 5.0 6 ------- null}
h -t 1.44066666666667 -s 3 -d 6 -p cbr -e 1000 -c 2 -i 10 -a 2 -x {1.0 5.0 -1 ------- null}
d -t 1.44067066666667 -s 4 -d 6 -p cbr -e 1000 -c 2 -i 10 -a 2 -x {1.0 5.0 6 ------- null}
r -t 1.445788 -s 6 -d 4 -p tcp -e 1040 -c 1 -i 9 -a 1 -x {0.0 4.0 2 ------- null}
h -t 1.445788 -s 4 -d 6 -p ack -e 40 -c 1 -i 12 -a 1 -x {4.0 0.0 2 ------- null}
r -t 1.48067066666667 -s 6 -d 5 -p cbr -e 1000 -c 2 -i 10 -a 2 -x {1.0 5.0 6 ------- null}
+ -t 1.485788 -s 4 -d 6 -p ack -e 40 -c 1 -i 12 -a 1 -x {4.0 0.0 2 ------- null}
- -t 1.485788 -s 4 -d 6 -p ack -e 40 -c 1 -i 12 -a 1 -x {4.0 0.0 2 ------- null}
h -t 1.485788 -s 4 -d 6 -p ack -e 40 -c 1 -i 12 -a 1 -x {4.0 0.0 -1 ------- null}
d -t 1.485792 -s 5 -d 6 -p ack -e 40 -c 1 -i 12 -a 1 -x {4.0 0.0 2 ------- null}
r -t 1.525792 -s 6 -d 3 -p ack -e 40 -c 1 -i 12 -a 1 -x {4.0 0.0 2 ------- null}
+ -t 1.525792 -s 3 -d 2 -p ack -e 40 -c 1 -i 12 -a 1 -x {4.0 0.0 2 ------- null}
- -t 1.525792 -s 3 -d 2 -p ack -e 40 -c 1 -i 12 -a 1 -x {4.0 0.0 2 ------- null}
h -t 1.525792 -s 3 -d 2 -p ack -e 40 -c 1 -i 12 -a 1 -x {4.0 0.0 -1 ------- null}
r -t 1.56066666666667 -s 2 -d 3 -p cbr -e 1000 -c 2 -i 11 -a 2 -x {1.0 5.0 7 ------- null}
h -t 1.56066666666667 -s 3 -d 6 -p cbr -e 1000 -c 2 -i 11 -a 2 -x {1.0 5.0 7 ------- null}
+ -t 1.58 -s 1 -d 2 -p cbr -e 1000 -c 2 -i 13 -a 2 -x {1.0 5.0 8 ------- null}
- -t 1.58 -s 1 -d 2 -p cbr -e 1000 -c 2 -i 13 -a 2 -x {1.0 5.0 8 ------- null}
h -t 1.58 -s 1 -d 2 -p cbr -e 1000 -c 2 -i 13 -a 2 -x {1.0 5.0 -1 ------- null}
r -t 1.594 -s 1 -d 2 -p cbr -e 1000 -c 2 -i 13 -a 2 -x {1.0 5.0 8 ------- null}
+ -t 1.594 -s 2 -d 3 -p cbr -e 1000 -c 2 -i 13 -a 2 -x {1.0 5.0 8 ------- null}
- -t 1.594 -s 2 -d 3 -p cbr -e 1000 -c 2 -i 13 -a 2 -x {1.0 5.0 8 ------- null}
h -t 1.594 -s 2 -d 3 -p cbr -e 1000 -c 2 -i 13 -a 2 -x {1.0 5.0 -1 ------- null}
+ -t 1.60066666666667 -s 3 -d 6 -p cbr -e 1000 -c 2 -i 11 -a 2 -x {1.0 5.0 7 ------- null}
- -t 1.60066666666667 -s 3 -d 6 -p cbr -e 1000 -c 2 -i 11 -a 2 -x {1.0 5.0 7 ------- null}
h -t 1.60066666666667 -s 3 -d 6 -p cbr -e 1000 -c 2 -i 11 -a 2 -x {1.0 5.0 -1 ------- null}
d -t 1.60067066666667 -s 4 -d 6 -p cbr -e 1000 -c 2 -i 11 -a 2 -x {1.0 5.0 7 ------- null}
r -t 1.62685866666667 -s 3 -d 2 -p ack -e 40 -c 1 -i 12 -a 1 -x {4.0 0.0 2 ------- null}
+ -t 1.62685866666667 -s 2 -d 0 -p ack -e 40 -c 1 -i 12 -a 1 -x {4.0 0.0 2 ------- null}
- -t 1.62685866666667 -s 2 -d 0 -p ack -e 40 -c 1 -i 12 -a 1 -x {4.0 0.0 2 ------- null}
h -t 1.62685866666667 -s 2 -d 0 -p ack -e 40 -c 1 -i 12 -a 1 -x {4.0 0.0 -1 ------- null}
r -t 1.63701866666667 -s 2 -d 0 -p ack -e 40 -c 1 -i 12 -a 1 -x {4.0 0.0 2 ------- null}
+ -t 1.63701866666667 -s 0 -d 2 -p tcp -e 1040 -c 1 -i 14 -a 1 -x {0.0 4.0 3 ------- null}
- -t 1.63701866666667 -s 0 -d 2 -p tcp -e 1040 -c 1 -i 14 -a 1 -x {0.0 4.0 3 ------- null}
h -t 1.63701866666667 -s 0 -d 2 -p tcp -e 1040 -c 1 -i 14 -a 1 -x {0.0 4.0 -1 ------- null}
+ -t 1.63701866666667 -s 0 -d 2 -p tcp -e 1040 -c 1 -i 15 -a 1 -x {0.0 4.0 4 ------- null}
+ -t 1.63701866666667 -s 0 -d 2 -p tcp -e 1040 -c 1 -i 16 -a 1 -x {0.0 4.0 5 ------- null}
r -t 1.64067066666667 -s 6 -d 5 -p cbr -e 1000 -c 2 -i 11 -a 2 -x {1.0 5.0 7 ------- null}
- -t 1.64117866666667 -s 0 -d 2 -p tcp -e 1040 -c 1 -i 15 -a 1 -x {0.0 4.0 4 ------- null}
h -t 1.64117866666667 -s 0 -d 2 -p tcp -e 1040 -c 1 -i 15 -a 1 -x {0.0 4.0 -1 ------- null}
- -t 1.64533866666667 -s 0 -d 2 -p tcp -e 1040 -c 1 -i 16 -a 1 -x {0.0 4.0 5 ------- null}
h -t 1.64533866666667 -s 0 -d 2 -p tcp -e 1040 -c 1 -i 16 -a 1 -x {0.0 4.0 -1 ------- null}
r -t 1.65117866666667 -s 0 -d 2 -p tcp -e 1040 -c 1 -i 14 -a 1 -x {0.0 4.0 3 ------- null}
+ -t 1.65117866666667 -s 2 -d 3 -p tcp -e 1040 -c 1 -i 14 -a 1 -x {0.0 4.0 3 ------- null}
- -t 1.65117866666667 -s 2 -d 3 -p tcp -e 1040 -c 1 -i 14 -a 1 -x {0.0 4.0 3 ------- null}
h -t 1.65117866666667 -s 2 -d 3 -p tcp -e 1040 -c 1 -i 14 -a 1 -x {0.0 4.0 -1 ------- null}
r -t 1.65533866666667 -s 0 -d 2 -p tcp -e 1040 -c 1 -i 15 -a 1 -x {0.0 4.0 4 ------- null}
+ -t 1.65533866666667 -s 2 -d 3 -p tcp -e 1040 -c 1 -i 15 -a 1 -x {0.0 4.0 4 ------- null}
r -t 1.65949866666667 -s 0 -d 2 -p tcp -e 1040 -c 1 -i 16 -a 1 -x {0.0 4.0 5 ------- null}
+ -t 1.65949866666667 -s 2 -d 3 -p tcp -e 1040 -c 1 -i 16 -a 1 -x {0.0 4.0 5 ------- null}
- -t 1.678912 -s 2 -d 3 -p tcp -e 1040 -c 1 -i 15 -a 1 -x {0.0 4.0 4 ------- null}
h -t 1.678912 -s 2 -d 3 -p tcp -e 1040 -c 1 -i 15 -a 1 -x {0.0 4.0 -1 ------- null}
- -t 1.70664533333333 -s 2 -d 3 -p tcp -e 1040 -c 1 -i 16 -a 1 -x {0.0 4.0 5 ------- null}
h -t 1.70664533333333 -s 2 -d 3 -p tcp -e 1040 -c 1 -i 16 -a 1 -x {0.0 4.0 -1 ------- null}
r -t 1.72066666666667 -s 2 -d 3 -p cbr -e 1000 -c 2 -i 13 -a 2 -x {1.0 5.0 8 ------- null}
h -t 1.72066666666667 -s 3 -d 6 -p cbr -e 1000 -c 2 -i 13 -a 2 -x {1.0 5.0 8 ------- null}
+ -t 1.74 -s 1 -d 2 -p cbr -e 1000 -c 2 -i 17 -a 2 -x {1.0 5.0 9 ------- null}
- -t 1.74 -s 1 -d 2 -p cbr -e 1000 -c 2 -i 17 -a 2 -x {1.0 5.0 9 ------- null}
h -t 1.74 -s 1 -d 2 -p cbr -e 1000 -c 2 -i 17 -a 2 -x {1.0 5.0 -1 ------- null}
r -t 1.754 -s 1 -d 2 -p cbr -e 1000 -c 2 -i 17 -a 2 -x {1.0 5.0 9 ------- null}
+ -t 1.754 -s 2 -d 3 -p cbr -e 1000 -c 2 -i 17 -a 2 -x {1.0 5.0 9 ------- null}
- -t 1.754 -s 2 -d 3 -p cbr -e 1000 -c 2 -i 17 -a 2 -x {1.0 5.0 9 ------- null}
h -t 1.754 -s 2 -d 3 -p cbr -e 1000 -c 2 -i 17 -a 2 -x {1.0 5.0 -1 ------- null}
+ -t 1.76066666666667 -s 3 -d 6 -p cbr -e 1000 -c 2 -i 13 -a 2 -x {1.0 5.0 8 ------- null}
- -t 1.76066666666667 -s 3 -d 6 -p cbr -e 1000 -c 2 -i 13 -a 2 -x {1.0 5.0 8 ------- null}
h -t 1.76066666666667 -s 3 -d 6 -p cbr -e 1000 -c 2 -i 13 -a 2 -x {1.0 5.0 -1 ------- null}
d -t 1.76067066666667 -s 4 -d 6 -p cbr -e 1000 -c 2 -i 13 -a 2 -x {1.0 5.0 8 ------- null}
r -t 1.778912 -s 2 -d 3 -p tcp -e 1040 -c 1 -i 14 -a 1 -x {0.0 4.0 3 ------- null}
h -t 1.778912 -s 3 -d 6 -p tcp -e 1040 -c 1 -i 14 -a 1 -x {0.0 4.0 3 ------- null}
r -t 1.80067066666667 -s 6 -d 5 -p cbr -e 1000 -c 2 -i 13 -a 2 -x {1.0 5.0 8 ------- null}
r -t 1.80664533333333 -s 2 -d 3 -p tcp -e 1040 -c 1 -i 15 -a 1 -x {0.0 4.0 4 ------- null}
h -t 1.80664533333333 -s 3 -d 6 -p tcp -e 1040 -c 1 -i 15 -a 1 -x {0.0 4.0 4 ------- null}
+ -t 1.818912 -s 3 -d 6 -p tcp -e 1040 -c 1 -i 14 -a 1 -x {0.0 4.0 3 ------- null}
- -t 1.818912 -s 3 -d 6 -p tcp -e 1040 -c 1 -i 14 -a 1 -x {0.0 4.0 3 ------- null}
h -t 1.818912 -s 3 -d 6 -p tcp -e 1040 -c 1 -i 14 -a 1 -x {0.0 4.0 -1 ------- null}
d -t 1.818916 -s 5 -d 6 -p tcp -e 1040 -c 1 -i 14 -a 1 -x {0.0 4.0 3 ------- null}
r -t 1.83437866666667 -s 2 -d 3 -p tcp -e 1040 -c 1 -i 16 -a 1 -x {0.0 4.0 5 ------- null}
h -t 1.83437866666667 -s 3 -d 6 -p tcp -e 1040 -c 1 -i 16 -a 1 -x {0.0 4.0 5 ------- null}
+ -t 1.84664533333333 -s 3 -d 6 -p tcp -e 1040 -c 1 -i 15 -a 1 -x {0.0 4.0 4 ------- null}
- -t 1.84664533333333 -s 3 -d 6 -p tcp -e 1040 -c 1 -i 15 -a 1 -x {0.0 4.0 4 ------- null}
h -t 1.84664533333333 -s 3 -d 6 -p tcp -e 1040 -c 1 -i 15 -a 1 -x {0.0 4.0 -1 ------- null}
d -t 1.84664933333333 -s 5 -d 6 -p tcp -e 1040 -c 1 -i 15 -a 1 -x {0.0 4.0 4 ------- null}
r -t 1.858916 -s 6 -d 4 -p tcp -e 1040 -c 1 -i 14 -a 1 -x {0.0 4.0 3 ------- null}
+ -t 1.87437866666667 -s 3 -d 6 -p tcp -e 1040 -c 1 -i 16 -a 1 -x {0.0 4.0 5 ------- null}
- -t 1.87437866666667 -s 3 -d 6 -p tcp -e 1040 -c 1 -i 16 -a 1 -x {0.0 4.0 5 ------- null}
h -t 1.87437866666667 -s 3 -d 6 -p tcp -e 1040 -c 1 -i 16 -a 1 -x {0.0 4.0 -1 ------- null}
d -t 1.87438266666667 -s 5 -d 6 -p tcp -e 1040 -c 1 -i 16 -a 1 -x {0.0 4.0 5 ------- null}
r -t 1.88066666666667 -s 2 -d 3 -p cbr -e 1000 -c 2 -i 17 -a 2 -x {1.0 5.0 9 ------- null}
h -t 1.88066666666667 -s 3 -d 6 -p cbr -e 1000 -c 2 -i 17 -a 2 -x {1.0 5.0 9 ------- null}
r -t 1.88664933333333 -s 6 -d 4 -p tcp -e 1040 -c 1 -i 15 -a 1 -x {0.0 4.0 4 ------- null}
h -t 1.88664933333333 -s 4 -d 6 -p ack -e 40 -c 1 -i 18 -a 1 -x {4.0 0.0 4 ------- null}
+ -t 1.9 -s 1 -d 2 -p cbr -e 1000 -c 2 -i 19 -a 2 -x {1.0 5.0 10 ------- null}
- -t 1.9 -s 1 -d 2 -p cbr -e 1000 -c 2 -i 19 -a 2 -x {1.0 5.0 10 ------- null}
h -t 1.9 -s 1 -d 2 -p cbr -e 1000 -c 2 -i 19 -a 2 -x {1.0 5.0 -1 ------- null}
r -t 1.914 -s 1 -d 2 -p cbr -e 1000 -c 2 -i 19 -a 2 -x {1.0 5.0 10 ------- null}
+ -t 1.914 -s 2 -d 3 -p cbr -e 1000 -c 2 -i 19 -a 2 -x {1.0 5.0 10 ------- null}
- -t 1.914 -s 2 -d 3 -p cbr -e 1000 -c 2 -i 19 -a 2 -x {1.0 5.0 10 ------- null}
h -t 1.914 -s 2 -d 3 -p cbr -e 1000 -c 2 -i 19 -a 2 -x {1.0 5.0 -1 ------- null}
r -t 1.91438266666667 -s 6 -d 4 -p tcp -e 1040 -c 1 -i 16 -a 1 -x {0.0 4.0 5 ------- null}
+ -t 1.92066666666667 -s 3 -d 6 -p cbr -e 1000 -c 2 -i 17 -a 2 -x {1.0 5.0 9 ------- null}
- -t 1.92066666666667 -s 3 -d 6 -p cbr -e 1000 -c 2 -i 17 -a 2 -x {1.0 5.0 9 ------- null}
h -t 1.92066666666667 -s 3 -d 6 -p cbr -e 1000 -c 2 -i 17 -a 2 -x {1.0 5.0 -1 ------- null}
d -t 1.92067066666667 -s 4 -d 6 -p cbr -e 1000 -c 2 -i 17 -a 2 -x {1.0 5.0 9 ------- null}
+ -t 1.92664933333333 -s 4 -d 6 -p ack -e 40 -c 1 -i 18 -a 1 -x {4.0 0.0 4 ------- null}
- -t 1.92664933333333 -s 4 -d 6 -p ack -e 40 -c 1 -i 18 -a 1 -x {4.0 0.0 4 ------- null}
h -t 1.92664933333333 -s 4 -d 6 -p ack -e 40 -c 1 -i 18 -a 1 -x {4.0 0.0 -1 ------- null}
d -t 1.92665333333333 -s 5 -d 6 -p ack -e 40 -c 1 -i 18 -a 1 -x {4.0 0.0 4 ------- null}
r -t 1.96067066666667 -s 6 -d 5 -p cbr -e 1000 -c 2 -i 17 -a 2 -x {1.0 5.0 9 ------- null}
r -t 1.96665333333333 -s 6 -d 3 -p ack -e 40 -c 1 -i 18 -a 1 -x {4.0 0.0 4 ------- null}
+ -t 1.96665333333333 -s 3 -d 2 -p ack -e 40 -c 1 -i 18 -a 1 -x {4.0 0.0 4 ------- null}
- -t 1.96665333333333 -s 3 -d 2 -p ack -e 40 -c 1 -i 18 -a 1 -x {4.0 0.0 4 ------- null}
h -t 1.96665333333333 -s 3 -d 2 -p ack -e 40 -c 1 -i 18 -a 1 -x {4.0 0.0 -1 ------- null}
h -t 2.01438266666667 -s 4 -d 6 -p ack -e 40 -c 1 -i 20 -a 1 -x {4.0 0.0 5 ------- null}
r -t 2.04066666666667 -s 2 -d 3 -p cbr -e 1000 -c 2 -i 19 -a 2 -x {1.0 5.0 10 ------- null}
h -t 2.04066666666667 -s 3 -d 6 -p cbr -e 1000 -c 2 -i 19 -a 2 -x {1.0 5.0 10 ------- null}
+ -t 2.05438266666667 -s 4 -d 6 -p ack -e 40 -c 1 -i 20 -a 1 -x {4.0 0.0 5 ------- null}
- -t 2.05438266666667 -s 4 -d 6 -p ack -e 40 -c 1 -i 20 -a 1 -x {4.0 0.0 5 ------- null}
h -t 2.05438266666667 -s 4 -d 6 -p ack -e 40 -c 1 -i 20 -a 1 -x {4.0 0.0 -1 ------- null}
d -t 2.05438666666667 -s 5 -d 6 -p ack -e 40 -c 1 -i 20 -a 1 -x {4.0 0.0 5 ------- null}
+ -t 2.06 -s 1 -d 2 -p cbr -e 1000 -c 2 -i 21 -a 2 -x {1.0 5.0 11 ------- null}
- -t 2.06 -s 1 -d 2 -p cbr -e 1000 -c 2 -i 21 -a 2 -x {1.0 5.0 11 ------- null}
h -t 2.06 -s 1 -d 2 -p cbr -e 1000 -c 2 -i 21 -a 2 -x {1.0 5.0 -1 ------- null}
r -t 2.06772 -s 3 -d 2 -p ack -e 40 -c 1 -i 18 -a 1 -x {4.0 0.0 4 ------- null}
+ -t 2.06772 -s 2 -d 0 -p ack -e 40 -c 1 -i 18 -a 1 -x {4.0 0.0 4 ------- null}
- -t 2.06772 -s 2 -d 0 -p ack -e 40 -c 1 -i 18 -a 1 -x {4.0 0.0 4 ------- null}
h -t 2.06772 -s 2 -d 0 -p ack -e 40 -c 1 -i 18 -a 1 -x {4.0 0.0 -1 ------- null}
r -t 2.074 -s 1 -d 2 -p cbr -e 1000 -c 2 -i 21 -a 2 -x {1.0 5.0 11 ------- null}
+ -t 2.074 -s 2 -d 3 -p cbr -e 1000 -c 2 -i 21 -a 2 -x {1.0 5.0 11 ------- null}
- -t 2.074 -s 2 -d 3 -p cbr -e 1000 -c 2 -i 21 -a 2 -x {1.0 5.0 11 ------- null}
h -t 2.074 -s 2 -d 3 -p cbr -e 1000 -c 2 -i 21 -a 2 -x {1.0 5.0 -1 ------- null}
r -t 2.07788 -s 2 -d 0 -p ack -e 40 -c 1 -i 18 -a 1 -x {4.0 0.0 4 ------- null}
+ -t 2.07788 -s 0 -d 2 -p tcp -e 1040 -c 1 -i 22 -a 1 -x {0.0 4.0 6 ------- null}
- -t 2.07788 -s 0 -d 2 -p tcp -e 1040 -c 1 -i 22 -a 1 -x {0.0 4.0 6 ------- null}
h -t 2.07788 -s 0 -d 2 -p tcp -e 1040 -c 1 -i 22 -a 1 -x {0.0 4.0 -1 ------- null}
+ -t 2.07788 -s 0 -d 2 -p tcp -e 1040 -c 1 -i 23 -a 1 -x {0.0 4.0 7 ------- null}
+ -t 2.07788 -s 0 -d 2 -p tcp -e 1040 -c 1 -i 24 -a 1 -x {0.0 4.0 8 ------- null}
+ -t 2.08066666666667 -s 3 -d 6 -p cbr -e 1000 -c 2 -i 19 -a 2 -x {1.0 5.0 10 ------- null}
- -t 2.08066666666667 -s 3 -d 6 -p cbr -e 1000 -c 2 -i 19 -a 2 -x {1.0 5.0 10 ------- null}
h -t 2.08066666666667 -s 3 -d 6 -p cbr -e 1000 -c 2 -i 19 -a 2 -x {1.0 5.0 -1 ------- null}
d -t 2.08067066666667 -s 4 -d 6 -p cbr -e 1000 -c 2 -i 19 -a 2 -x {1.0 5.0 10 ------- null}
- -t 2.08204 -s 0 -d 2 -p tcp -e 1040 -c 1 -i 23 -a 1 -x {0.0 4.0 7 ------- null}
h -t 2.08204 -s 0 -d 2 -p tcp -e 1040 -c 1 -i 23 -a 1 -x {0.0 4.0 -1 ------- null}
- -t 2.0862 -s 0 -d 2 -p tcp -e 1040 -c 1 -i 24 -a 1 -x {0.0 4.0 8 ------- null}
h -t 2.0862 -s 0 -d 2 -p tcp -e 1040 -c 1 -i 24 -a 1 -x {0.0 4.0 -1 ------- null}
r -t 2.09204 -s 0 -d 2 -p tcp -e 1040 -c 1 -i 22 -a 1 -x {0.0 4.0 6 ------- null}
+ -t 2.09204 -s 2 -d 3 -p tcp -e 1040 -c 1 -i 22 -a 1 -x {0.0 4.0 6 ------- null}
r -t 2.09438666666667 -s 6 -d 3 -p ack -e 40 -c 1 -i 20 -a 1 -x {4.0 0.0 5 ------- null}
+ -t 2.09438666666667 -s 3 -d 2 -p ack -e 40 -c 1 -i 20 -a 1 -x {4.0 0.0 5 ------- null}
- -t 2.09438666666667 -s 3 -d 2 -p ack -e 40 -c 1 -i 20 -a 1 -x {4.0 0.0 5 ------- null}
h -t 2.09438666666667 -s 3 -d 2 -p ack -e 40 -c 1 -i 20 -a 1 -x {4.0 0.0 -1 ------- null}
r -t 2.0962 -s 0 -d 2 -p tcp -e 1040 -c 1 -i 23 -a 1 -x {0.0 4.0 7 ------- null}
+ -t 2.0962 -s 2 -d 3 -p tcp -e 1040 -c 1 -i 23 -a 1 -x {0.0 4.0 7 ------- null}
r -t 2.10036 -s 0 -d 2 -p tcp -e 1040 -c 1 -i 24 -a 1 -x {0.0 4.0 8 ------- null}
+ -t 2.10036 -s 2 -d 3 -p tcp -e 1040 -c 1 -i 24 -a 1 -x {0.0 4.0 8 ------- null}
- -t 2.10066666666667 -s 2 -d 3 -p tcp -e 1040 -c 1 -i 22 -a 1 -x {0.0 4.0 6 ------- null}
h -t 2.10066666666667 -s 2 -d 3 -p tcp -e 1040 -c 1 -i 22 -a 1 -x {0.0 4.0 -1 ------- null}
r -t 2.12067066666667 -s 6 -d 5 -p cbr -e 1000 -c 2 -i 19 -a 2 -x {1.0 5.0 10 ------- null}
- -t 2.1284 -s 2 -d 3 -p tcp -e 1040 -c 1 -i 23 -a 1 -x {0.0 4.0 7 ------- null}
h -t 2.1284 -s 2 -d 3 -p tcp -e 1040 -c 1 -i 23 -a 1 -x {0.0 4.0 -1 ------- null}
- -t 2.15613333333333 -s 2 -d 3 -p tcp -e 1040 -c 1 -i 24 -a 1 -x {0.0 4.0 8 ------- null}
h -t 2.15613333333333 -s 2 -d 3 -p tcp -e 1040 -c 1 -i 24 -a 1 -x {0.0 4.0 -1 ------- null}
r -t 2.19545333333333 -s 3 -d 2 -p ack -e 40 -c 1 -i 20 -a 1 -x {4.0 0.0 5 ------- null}
+ -t 2.19545333333333 -s 2 -d 0 -p ack -e 40 -c 1 -i 20 -a 1 -x {4.0 0.0 5 ------- null}
- -t 2.19545333333333 -s 2 -d 0 -p ack -e 40 -c 1 -i 20 -a 1 -x {4.0 0.0 5 ------- null}
h -t 2.19545333333333 -s 2 -d 0 -p ack -e 40 -c 1 -i 20 -a 1 -x {4.0 0.0 -1 ------- null}
r -t 2.20066666666667 -s 2 -d 3 -p cbr -e 1000 -c 2 -i 21 -a 2 -x {1.0 5.0 11 ------- null}
h -t 2.20066666666667 -s 3 -d 6 -p cbr -e 1000 -c 2 -i 21 -a 2 -x {1.0 5.0 11 ------- null}
r -t 2.20561333333333 -s 2 -d 0 -p ack -e 40 -c 1 -i 20 -a 1 -x {4.0 0.0 5 ------- null}
+ -t 2.20561333333333 -s 0 -d 2 -p tcp -e 1040 -c 1 -i 25 -a 1 -x {0.0 4.0 9 ------- null}
- -t 2.20561333333333 -s 0 -d 2 -p tcp -e 1040 -c 1 -i 25 -a 1 -x {0.0 4.0 9 ------- null}
h -t 2.20561333333333 -s 0 -d 2 -p tcp -e 1040 -c 1 -i 25 -a 1 -x {0.0 4.0 -1 ------- null}
+ -t 2.20561333333333 -s 0 -d 2 -p tcp -e 1040 -c 1 -i 26 -a 1 -x {0.0 4.0 10 ------- null}
- -t 2.20977333333333 -s 0 -d 2 -p tcp -e 1040 -c 1 -i 26 -a 1 -x {0.0 4.0 10 ------- null}
h -t 2.20977333333333 -s 0 -d 2 -p tcp -e 1040 -c 1 -i 26 -a 1 -x {0.0 4.0 -1 ------- null}
r -t 2.21977333333333 -s 0 -d 2 -p tcp -e 1040 -c 1 -i 25 -a 1 -x {0.0 4.0 9 ------- null}
+ -t 2.21977333333333 -s 2 -d 3 -p tcp -e 1040 -c 1 -i 25 -a 1 -x {0.0 4.0 9 ------- null}
- -t 2.21977333333333 -s 2 -d 3 -p tcp -e 1040 -c 1 -i 25 -a 1 -x {0.0 4.0 9 ------- null}
h -t 2.21977333333333 -s 2 -d 3 -p tcp -e 1040 -c 1 -i 25 -a 1 -x {0.0 4.0 -1 ------- null}
+ -t 2.22 -s 1 -d 2 -p cbr -e 1000 -c 2 -i 27 -a 2 -x {1.0 5.0 12 ------- null}
- -t 2.22 -s 1 -d 2 -p cbr -e 1000 -c 2 -i 27 -a 2 -x {1.0 5.0 12 ------- null}
h -t 2.22 -s 1 -d 2 -p cbr -e 1000 -c 2 -i 27 -a 2 -x {1.0 5.0 -1 ------- null}
r -t 2.22393333333333 -s 0 -d 2 -p tcp -e 1040 -c 1 -i 26 -a 1 -x {0.0 4.0 10 ------- null}