V -t * -v 1.0a5 -a 0
A -t * -n 1 -p 0 -o 0x7fffffff -c 30 -a 1
A -t * -h 1 -m 1073741823 -s 0
n -t * -a 0 -s 0 -S UP -v circle -c black -i black
n -t * -a 1 -s 1 -S UP -v circle -c black -i black
n -t * -a 2 -s 2 -S UP -v circle -c black -i black
n -t * -a 3 -s 3 -S UP -v circle -c black -i black
l -t * -s 0 -d 2 -S UP -r 2000000 -D 0.01 -c black
l -t * -s 2 -d 3 -S UP -r 500000 -D 0.01 -c black
l -t * -s 1 -d 2 -S UP -r 2000000 -D 0.01 -c black
+ -t 0.6 -s 1 -d 2 -p tcp -e 40 -c 0 -i 0 -a 0 -x {1.0 3.1 0 ------- null}
- -t 0.6 -s 1 -d 2 -p tcp -e 40 -c 0 -i 0 -a 0 -x {1.0 3.1 0 ------- null}
h -t 0.6 -s 1 -d 2 -p tcp -e 40 -c 0 -i 0 -a 0 -x {1.0 3.1 -1 ------- null}
r -t 0.61016 -s 1 -d 2 -p tcp -e 40 -c 0 -i 0 -a 0 -x {1.0 3.1 0 ------- null}
+ -t 0.61016 -s 2 -d 3 -p tcp -e 40 -c 0 -i 0 -a 0 -x {1.0 3.1 0 ------- null}
- -t 0.61016 -s 2 -d 3 -p tcp -e 40 -c 0 -i 0 -a 0 -x {1.0 3.1 0 ------- null}
h -t 0.61016 -s 2 -d 3 -p tcp -e 40 -c 0 -i 0 -a 0 -x {1.0 3.1 -1 ------- null}
r -t 0.6208 -s 2 -d 3 -p tcp -e 40 -c 0 -i 0 -a 0 -x {1.0 3.1 0 ------- null}
+ -t 0.6208 -s 3 -d 2 -p ack -e 40 -c 0 -i 1 -a 0 -x {3.1 1.0 0 ------- null}
- -t 0.6208 -s 3 -d 2 -p ack -e 40 -c 0 -i 1 -a 0 -x {3.1 1.0 0 ------- null}
h -t 0.6208 -s 3 -d 2 -p ack -e 40 -c 0 -i 1 -a 0 -x {3.1 1.0 -1 ------- null}
r -t 0.63144 -s 3 -d 2 -p ack -e 40 -c 0 -i 1 -a 0 -x {3.1 1.0 0 ------- null}
+ -t 0.63144 -s 2 -d 1 -p ack -e 40 -c 0 -i 1 -a 0 -x {3.1 1.0 0 ------- null}
- -t 0.63144 -s 2 -d 1 -p ack -e 40 -c 0 -i 1 -a 0 -x {3.1 1.0 0 ------- null}
h -t 0.63144 -s 2 -d 1 -p ack -e 40 -c 0 -i 1 -a 0 -x {3.1 1.0 -1 ------- null}
r -t 0.6416 -s 2 -d 1 -p ack -e 40 -c 0 -i 1 -a 0 -x {3.1 1.0 0 ------- null}
+ -t 0.6416 -s 1 -d 2 -p tcp -e 1040 -c 0 -i 2 -a 0 -x {1.0 3.1 1 ------- null}
- -t 0.6416 -s 1 -d 2 -p tcp -e 1040 -c 0 -i 2 -a 0 -x {1.0 3.1 1 ------- null}
h -t 0.6416 -s 1 -d 2 -p tcp -e 1040 -c 0 -i 2 -a 0 -x {1.0 3.1 -1 ------- null}
+ -t 0.6416 -s 1 -d 2 -p tcp -e 1040 -c 0 -i 3 -a 0 -x {1.0 3.1 2 ------- null}
- -t 0.64576 -s 1 -d 2 -p tcp -e 1040 -c 0 -i 3 -a 0 -x {1.0 3.1 2 ------- null}
h -t 0.64576 -s 1 -d 2 -p tcp -e 1040 -c 0 -i 3 -a 0 -x {1.0 3.1 -1 ------- null}
r -t 0.65576 -s 1 -d 2 -p tcp -e 1040 -c 0 -i 2 -a 0 -x {1.0 3.1 1 ------- null}
+ -t 0.65576 -s 2 -d 3 -p tcp -e 1040 -c 0 -i 2 -a 0 -x {1.0 3.1 1 ------- null}
- -t 0.65576 -s 2 -d 3 -p tcp -e 1040 -c 0 -i 2 -a 0 -x {1.0 3.1 1 ------- null}
h -t 0.65576 -s 2 -d 3 -p tcp -e 1040 -c 0 -i 2 -a 0 -x {1.0 3.1 -1 ------- null}
r -t 0.65992 -s 1 -d 2 -p tcp -e 1040 -c 0 -i 3 -a 0 -x {1.0 3.1 2 ------- null}
+ -t 0.65992 -s 2 -d 3 -p tcp -e 1040 -c 0 -i 3 -a 0 -x {1.0 3.1 2 ------- null}
- -t 0.6724 -s 2 -d 3 -p tcp -e 1040 -c 0 -i 3 -a 0 -x {1.0 3.1 2 ------- null}
h -t 0.6724 -s 2 -d 3 -p tcp -e 1040 -c 0 -i 3 -a 0 -x {1.0 3.1 -1 ------- null}
r -t 0.6824 -s 2 -d 3 -p tcp -e 1040 -c 0 -i 2 -a 0 -x {1.0 3.1 1 ------- null}
+ -t 0.6824 -s 3 -d 2 -p ack -e 40 -c 0 -i 4 -a 0 -x {3.1 1.0 1 ------- null}
- -t 0.6824 -s 3 -d 2 -p ack -e 40 -c 0 -i 4 -a 0 -x {3.1 1.0 1 ------- null}
h -t 0.6824 -s 3 -d 2 -p ack -e 40 -c 0 -i 4 -a 0 -x {3.1 1.0 -1 ------- null}
r -t 0.69304 -s 3 -d 2 -p ack -e 40 -c 0 -i 4 -a 0 -x {3.1 1.0 1 ------- null}
+ -t 0.69304 -s 2 -d 1 -p ack -e 40 -c 0 -i 4 -a 0 -x {3.1 1.0 1 ------- null}
- -t 0.69304 -s 2 -d 1 -p ack -e 40 -c 0 -i 4 -a 0 -x {3.1 1.0 1 ------- null}
h -t 0.69304 -s 2 -d 1 -p ack -e 40 -c 0 -i 4 -a 0 -x {3.1 1.0 -1 ------- null}
r -t 0.69904 -s 2 -d 3 -p tcp -e 1040 -c 0 -i 3 -a 0 -x {1.0 3.1 2 ------- null}
+ -t 0.69904 -s 3 -d 2 -p ack -e 40 -c 0 -i 5 -a 0 -x {3.1 1.0 2 ------- null}
- -t 0.69904 -s 3 -d 2 -p ack -e 40 -c 0 -i 5 -a 0 -x {3.1 1.0 2 ------- null}
h -t 0.69904 -s 3 -d 2 -p ack -e 40 -c 0 -i 5 -a 0 -x {3.1 1.0 -1 ------- null}
r -t 0.7032 -s 2 -d 1 -p ack -e 40 -c 0 -i 4 -a 0 -x {3.1 1.0 1 ------- null}
+ -t 0.7032 -s 1 -d 2 -p tcp -e 1040 -c 0 -i 6 -a 0 -x {1.0 3.1 3 ------- null}
- -t 0.7032 -s 1 -d 2 -p tcp -e 1040 -c 0 -i 6 -a 0 -x {1.0 3.1 3 ------- null}
h -t 0.7032 -s 1 -d 2 -p tcp -e 1040 -c 0 -i 6 -a 0 -x {1.0 3.1 -1 ------- null}
+ -t 0.7032 -s 1 -d 2 -p tcp -e 1040 -c 0 -i 7 -a 0 -x {1.0 3.1 4 ------- null}
- -t 0.70736 -s 1 -d 2 -p tcp -e 1040 -c 0 -i 7 -a 0 -x {1.0 3.1 4 ------- null}
h -t 0.70736 -s 1 -d 2 -p tcp -e 1040 -c 0 -i 7 -a 0 -x {1.0 3.1 -1 ------- null}
+ -t 0.707790344 -s 0 -d 2 -p tcp -e 40 -c 0 -i 8 -a 0 -x {0.0 3.0 0 ------- null}
- -t 0.707790344 -s 0 -d 2 -p tcp -e 40 -c 0 -i 8 -a 0 -x {0.0 3.0 0 ------- null}
h -t 0.707790344 -s 0 -d 2 -p tcp -e 40 -c 0 -i 8 -a 0 -x {0.0 3.0 -1 ------- null}
r -t 0.70968 -s 3 -d 2 -p ack -e 40 -c 0 -i 5 -a 0 -x {3.1 1.0 2 ------- null}
+ -t 0.70968 -s 2 -d 1 -p ack -e 40 -c 0 -i 5 -a 0 -x {3.1 1.0 2 ------- null}
- -t 0.70968 -s 2 -d 1 -p ack -e 40 -c 0 -i 5 -a 0 -x {3.1 1.0 2 ------- null}
h -t 0.70968 -s 2 -d 1 -p ack -e 40 -c 0 -i 5 -a 0 -x {3.1 1.0 -1 ------- null}
r -t 0.71736 -s 1 -d 2 -p tcp -e 1040 -c 0 -i 6 -a 0 -x {1.0 3.1 3 ------- null}
+ -t 0.71736 -s 2 -d 3 -p tcp -e 1040 -c 0 -i 6 -a 0 -x {1.0 3.1 3 ------- null}
- -t 0.71736 -s 2 -d 3 -p tcp -e 1040 -c 0 -i 6 -a 0 -x {1.0 3.1 3 ------- null}
h -t 0.71736 -s 2 -d 3 -p tcp -e 1040 -c 0 -i 6 -a 0 -x {1.0 3.1 -1 ------- null}
r -t 0.717950344 -s 0 -d 2 -p tcp -e 40 -c 0 -i 8 -a 0 -x {0.0 3.0 0 ------- null}
+ -t 0.717950344 -s 2 -d 3 -p tcp -e 40 -c 0 -i 8 -a 0 -x {0.0 3.0 0 ------- null}
r -t 0.71984 -s 2 -d 1 -p ack -e 40 -c 0 -i 5 -a 0 -x {3.1 1.0 2 ------- null}
+ -t 0.71984 -s 1 -d 2 -p tcp -e 1040 -c 0 -i 9 -a 0 -x {1.0 3.1 5 ------- null}
- -t 0.71984 -s 1 -d 2 -p tcp -e 1040 -c 0 -i 9 -a 0 -x {1.0 3.1 5 ------- null}
h -t 0.71984 -s 1 -d 2 -p tcp -e 1040 -c 0 -i 9 -a 0 -x {1.0 3.1 -1 ------- null}
+ -t 0.71984 -s 1 -d 2 -p tcp -e 1040 -c 0 -i 10 -a 0 -x {1.0 3.1 6 ------- null}
r -t 0.72152 -s 1 -d 2 -p tcp -e 1040 -c 0 -i 7 -a 0 -x {1.0 3.1 4 ------- null}
+ -t 0.72152 -s 2 -d 3 -p tcp -e 1040 -c 0 -i 7 -a 0 -x {1.0 3.1 4 ------- null}
- -t 0.724 -s 1 -d 2 -p tcp -e 1040 -c 0 -i 10 -a 0 -x {1.0 3.1 6 ------- null}
h -t 0.724 -s 1 -d 2 -p tcp -e 1040 -c 0 -i 10 -a 0 -x {1.0 3.1 -1 ------- null}
- -t 0.734 -s 2 -d 3 -p tcp -e 40 -c 0 -i 8 -a 0 -x {0.0 3.0 0 ------- null}
h -t 0.734 -s 2 -d 3 -p tcp -e 40 -c 0 -i 8 -a 0 -x {0.0 3.0 -1 ------- null}
r -t 0.734 -s 1 -d 2 -p tcp -e 1040 -c 0 -i 9 -a 0 -x {1.0 3.1 5 ------- null}
+ -t 0.734 -s 2 -d 3 -p tcp -e 1040 -c 0 -i 9 -a 0 -x {1.0 3.1 5 ------- null}
- -t 0.73464 -s 2 -d 3 -p tcp -e 1040 -c 0 -i 7 -a 0 -x {1.0 3.1 4 ------- null}
h -t 0.73464 -s 2 -d 3 -p tcp -e 1040 -c 0 -i 7 -a 0 -x {1.0 3.1 -1 ------- null}
r -t 0.73816 -s 1 -d 2 -p tcp -e 1040 -c 0 -i 10 -a 0 -x {1.0 3.1 6 ------- null}
+ -t 0.73816 -s 2 -d 3 -p tcp -e 1040 -c 0 -i 10 -a 0 -x {1.0 3.1 6 ------- null}
r -t 0.744 -s 2 -d 3 -p tcp -e 1040 -c 0 -i 6 -a 0 -x {1.0 3.1 3 ------- null}
+ -t 0.744 -s 3 -d 2 -p ack -e 40 -c 0 -i 11 -a 0 -x {3.1 1.0 3 ------- null}
- -t 0.744 -s 3 -d 2 -p ack -e 40 -c 0 -i 11 -a 0 -x {3.1 1.0 3 ------- null}
h -t 0.744 -s 3 -d 2 -p ack -e 40 -c 0 -i 11 -a 0 -x {3.1 1.0 -1 ------- null}
r -t 0.74464 -s 2 -d 3 -p tcp -e 40 -c 0 -i 8 -a 0 -x {0.0 3.0 0 ------- null}
+ -t 0.74464 -s 3 -d 2 -p ack -e 40 -c 0 -i 12 -a 0 -x {3.0 0.0 0 ------- null}
- -t 0.74464 -s 3 -d 2 -p ack -e 40 -c 0 -i 12 -a 0 -x {3.0 0.0 0 ------- null}
h -t 0.74464 -s 3 -d 2 -p ack -e 40 -c 0 -i 12 -a 0 -x {3.0 0.0 -1 ------- null}
- -t 0.75128 -s 2 -d 3 -p tcp -e 1040 -c 0 -i 9 -a 0 -x {1.0 3.1 5 ------- null}
h -t 0.75128 -s 2 -d 3 -p tcp -e 1040 -c 0 -i 9 -a 0 -x {1.0 3.1 -1 ------- null}
r -t 0.75464 -s 3 -d 2 -p ack -e 40 -c 0 -i 11 -a 0 -x {3.1 1.0 3 ------- null}
+ -t 0.75464 -s 2 -d 1 -p ack -e 40 -c 0 -i 11 -a 0 -x {3.1 1.0 3 ------- null}
- -t 0.75464 -s 2 -d 1 -p ack -e 40 -c 0 -i 11 -a 0 -x {3.1 1.0 3 ------- null}
h -t 0.75464 -s 2 -d 1 -p ack -e 40 -c 0 -i 11 -a 0 -x {3.1 1.0 -1 ------- null}
r -t 0.75528 -s 3 -d 2 -p ack -e 40 -c 0 -i 12 -a 0 -x {3.0 0.0 0 ------- null}
+ -t 0.75528 -s 2 -d 0 -p ack -e 40 -c 0 -i 12 -a 0 -x {3.0 0.0 0 ------- null}
- -t 0.75528 -s 2 -d 0 -p ack -e 40 -c 0 -i 12 -a 0 -x {3.0 0.0 0 ------- null}
h -t 0.75528 -s 2 -d 0 -p ack -e 40 -c 0 -i 12 -a 0 -x {3.0 0.0 -1 ------- null}
r -t 0.76128 -s 2 -d 3 -p tcp -e 1040 -c 0 -i 7 -a 0 -x {1.0 3.1 4 ------- null}
+ -t 0.76128 -s 3 -d 2 -p ack -e 40 -c 0 -i 13 -a 0 -x {3.1 1.0 4 ------- null}
- -t 0.76128 -s 3 -d 2 -p ack -e 40 -c 0 -i 13 -a 0 -x {3.1 1.0 4 ------- null}
h -t 0.76128 -s 3 -d 2 -p ack -e 40 -c 0 -i 13 -a 0 -x {3.1 1.0 -1 ------- null}
r -t 0.7648 -s 2 -d 1 -p ack -e 40 -c 0 -i 11 -a 0 -x {3.1 1.0 3 ------- null}
+ -t 0.7648 -s 1 -d 2 -p tcp -e 1040 -c 0 -i 14 -a 0 -x {1.0 3.1 7 ------- null}
- -t 0.7648 -s 1 -d 2 -p tcp -e 1040 -c 0 -i 14 -a 0 -x {1.0 3.1 7 ------- null}
h -t 0.7648 -s 1 -d 2 -p tcp -e 1040 -c 0 -i 14 -a 0 -x {1.0 3.1 -1 ------- null}
+ -t 0.7648 -s 1 -d 2 -p tcp -e 1040 -c 0 -i 15 -a 0 -x {1.0 3.1 8 ------- null}
r -t 0.76544 -s 2 -d 0 -p ack -e 40 -c 0 -i 12 -a 0 -x {3.0 0.0 0 ------- null}
+ -t 0.76544 -s 0 -d 2 -p tcp -e 1040 -c 0 -i 16 -a 0 -x {0.0 3.0 1 ------- null}
- -t 0.76544 -s 0 -d 2 -p tcp -e 1040 -c 0 -i 16 -a 0 -x {0.0 3.0 1 ------- null}
h -t 0.76544 -s 0 -d 2 -p tcp -e 1040 -c 0 -i 16 -a 0 -x {0.0 3.0 -1 ------- null}
- -t 0.76792 -s 2 -d 3 -p tcp -e 1040 -c 0 -i 10 -a 0 -x {1.0 3.1 6 ------- null}
h -t 0.76792 -s 2 -d 3 -p tcp -e 1040 -c 0 -i 10 -a 0 -x {1.0 3.1 -1 ------- null}
- -t 0.76896 -s 1 -d 2 -p tcp -e 1040 -c 0 -i 15 -a 0 -x {1.0 3.1 8 ------- null}
h -t 0.76896 -s 1 -d 2 -p tcp -e 1040 -c 0 -i 15 -a 0 -x {1.0 3.1 -1 ------- null}
r -t 0.77192 -s 3 -d 2 -p ack -e 40 -c 0 -i 13 -a 0 -x {3.1 1.0 4 ------- null}
+ -t 0.77192 -s 2 -d 1 -p ack -e 40 -c 0 -i 13 -a 0 -x {3.1 1.0 4 ------- null}
- -t 0.77192 -s 2 -d 1 -p ack -e 40 -c 0 -i 13 -a 0 -x {3.1 1.0 4 ------- null}
h -t 0.77192 -s 2 -d 1 -p ack -e 40 -c 0 -i 13 -a 0 -x {3.1 1.0 -1 ------- null}
r -t 0.77792 -s 2 -d 3 -p tcp -e 1040 -c 0 -i 9 -a 0 -x {1.0 3.1 5 ------- null}
+ -t 0.77792 -s 3 -d 2 -p ack -e 40 -c 0 -i 17 -a 0 -x {3.1 1.0 5 ------- null}
- -t 0.77792 -s 3 -d 2 -p ack -e 40 -c 0 -i 17 -a 0 -x {3.1 1.0 5 ------- null}
h -t 0.77792 -s 3 -d 2 -p ack -e 40 -c 0 -i 17 -a 0 -x {3.1 1.0 -1 ------- null}
r -t 0.77896 -s 1 -d 2 -p tcp -e 1040 -c 0 -i 14 -a 0 -x {1.0 3.1 7 ------- null}
+ -t 0.77896 -s 2 -d 3 -p tcp -e 1040 -c 0 -i 14 -a 0 -x {1.0 3.1 7 ------- null}
r -t 0.7796 -s 0 -d 2 -p tcp -e 1040 -c 0 -i 16 -a 0 -x {0.0 3.0 1 ------- null}
+ -t 0.7796 -s 2 -d 3 -p tcp -e 1040 -c 0 -i 16 -a 0 -x {0.0 3.0 1 ------- null}
r -t 0.78208 -s 2 -d 1 -p ack -e 40 -c 0 -i 13 -a 0 -x {3.1 1.0 4 ------- null}
+ -t 0.78208 -s 1 -d 2 -p tcp -e 1040 -c 0 -i 18 -a 0 -x {1.0 3.1 9 ------- null}
- -t 0.78208 -s 1 -d 2 -p tcp -e 1040 -c 0 -i 18 -a 0 -x {1.0 3.1 9 ------- null}
h -t 0.78208 -s 1 -d 2 -p tcp -e 1040 -c 0 -i 18 -a 0 -x {1.0 3.1 -1 ------- null}
+ -t 0.78208 -s 1 -d 2 -p tcp -e 1040 -c 0 -i 19 -a 0 -x {1.0 3.1 10 ------- null}
r -t 0.78312 -s 1 -d 2 -p tcp -e 1040 -c 0 -i 15 -a 0 -x {1.0 3.1 8 ------- null}
+ -t 0.78312 -s 2 -d 3 -p tcp -e 1040 -c 0 -i 15 -a 0 -x {1.0 3.1 8 ------- null}
- -t 0.78456 -s 2 -d 3 -p tcp -e 1040 -c 0 -i 14 -a 0 -x {1.0 3.1 7 ------- null}
h -t 0.78456 -s 2 -d 3 -p tcp -e 1040 -c 0 -i 14 -a 0 -x {1.0 3.1 -1 ------- null}
- -t 0.78624 -s 1 -d 2 -p tcp -e 1040 -c 0 -i 19 -a 0 -x {1.0 3.1 10 ------- null}
h -t 0.78624 -s 1 -d 2 -p tcp -e 1040 -c 0 -i 19 -a 0 -x {1.0 3.1 -1 ------- null}
r -t 0.78856 -s 3 -d 2 -p ack -e 40 -c 0 -i 17 -a 0 -x {3.1 1.0 5 ------- null}
+ -t 0.78856 -s 2 -d 1 -p ack -e 40 -c 0 -i 17 -a 0 -x {3.1 1.0 5 ------- null}
- -t 0.78856 -s 2 -d 1 -p ack -e 40 -c 0 -i 17 -a 0 -x {3.1 1.0 5 ------- null}
h -t 0.78856 -s 2 -d 1 -p ack -e 40 -c 0 -i 17 -a 0 -x {3.1 1.0 -1 ------- null}
r -t 0.79456 -s 2 -d 3 -p tcp -e 1040 -c 0 -i 10 -a 0 -x {1.0 3.1 6 ------- null}
+ -t 0.79456 -s 3 -d 2 -p ack -e 40 -c 0 -i 20 -a 0 -x {3.1 1.0 6 ------- null}
- -t 0.79456 -s 3 -d 2 -p ack -e 40 -c 0 -i 20 -a 0 -x {3.1 1.0 6 ------- null}
h -t 0.79456 -s 3 -d 2 -p ack -e 40 -c 0 -i 20 -a 0 -x {3.1 1.0 -1 ------- null}
r -t 0.79624 -s 1 -d 2 -p tcp -e 1040 -c 0 -i 18 -a 0 -x {1.0 3.1 9 ------- null}
+ -t 0.79624 -s 2 -d 3 -p tcp -e 1040 -c 0 -i 18 -a 0 -x {1.0 3.1 9 ------- null}
r -t 0.79872 -s 2 -d 1 -p ack -e 40 -c 0 -i 17 -a 0 -x {3.1 1.0 5 ------- null}
+ -t 0.79872 -s 1 -d 2 -p tcp -e 1040 -c 0 -i 21 -a 0 -x {1.0 3.1 11 ------- null}
- -t 0.79872 -s 1 -d 2 -p tcp -e 1040 -c 0 -i 21 -a 0 -x {1.0 3.1 11 ------- null}
h -t 0.79872 -s 1 -d 2 -p tcp -e 1040 -c 0 -i 21 -a 0 -x {1.0 3.1 -1 ------- null}
+ -t 0.79872 -s 1 -d 2 -p tcp -e 1040 -c 0 -i 22 -a 0 -x {1.0 3.1 12 ------- null}
r -t 0.8004 -s 1 -d 2 -p tcp -e 1040 -c 0 -i 19 -a 0 -x {1.0 3.1 10 ------- null}
+ -t 0.8004 -s 2 -d 3 -p tcp -e 1040 -c 0 -i 19 -a 0 -x {1.0 3.1 10 ------- null}
- -t 0.8012 -s 2 -d 3 -p tcp -e 1040 -c 0 -i 16 -a 0 -x {0.0 3.0 1 ------- null}
h -t 0.8012 -s 2 -d 3 -p tcp -e 1040 -c 0 -i 16 -a 0 -x {0.0 3.0 -1 ------- null}
- -t 0.80288 -s 1 -d 2 -p tcp -e 1040 -c 0 -i 22 -a 0 -x {1.0 3.1 12 ------- null}
h -t 0.80288 -s 1 -d 2 -p tcp -e 1040 -c 0 -i 22 -a 0 -x {1.0 3.1 -1 ------- null}
r -t 0.8052 -s 3 -d 2 -p ack -e 40 -c 0 -i 20 -a 0 -x {3.1 1.0 6 ------- null}
+ -t 0.8052 -s 2 -d 1 -p ack -e 40 -c 0 -i 20 -a 0 -x {3.1 1.0 6 ------- null}
- -t 0.8052 -s 2 -d 1 -p ack -e 40 -c 0 -i 20 -a 0 -x {3.1 1.0 6 ------- null}
h -t 0.8052 -s 2 -d 1 -p ack -e 40 -c 0 -i 20 -a 0 -x {3.1 1.0 -1 ------- null}
r -t 0.8112 -s 2 -d 3 -p tcp -e 1040 -c 0 -i 14 -a 0 -x {1.0 3.1 7 ------- null}
+ -t 0.8112 -s 3 -d 2 -p ack -e 40 -c 0 -i 23 -a 0 -x {3.1 1.0 7 ------- null}
- -t 0.8112 -s 3 -d 2 -p ack -e 40 -c 0 -i 23 -a 0 -x {3.1 1.0 7 ------- null}
h -t 0.8112 -s 3 -d 2 -p ack -e 40 -c 0 -i 23 -a 0 -x {3.1 1.0 -1 ------- null}
r -t 0.812879999999999 -s 1 -d 2 -p tcp -e 1040 -c 0 -i 21 -a 0 -x {1.0 3.1 11 ------- null}
+ -t 0.812879999999999 -s 2 -d 3 -p tcp -e 1040 -c 0 -i 21 -a 0 -x {1.0 3.1 11 ------- null}
r -t 0.81536 -s 2 -d 1 -p ack -e 40 -c 0 -i 20 -a 0 -x {3.1 1.0 6 ------- null}
+ -t 0.81536 -s 1 -d 2 -p tcp -e 1040 -c 0 -i 24 -a 0 -x {1.0 3.1 13 ------- null}
- -t 0.81536 -s 1 -d 2 -p tcp -e 1040 -c 0 -i 24 -a 0 -x {1.0 3.1 13 ------- null}
h -t 0.81536 -s 1 -d 2 -p tcp -e 1040 -c 0 -i 24 -a 0 -x {1.0 3.1 -1 ------- null}
+ -t 0.81536 -s 1 -d 2 -p tcp -e 1040 -c 0 -i 25 -a 0 -x {1.0 3.1 14 ------- null}
r -t 0.81704 -s 1 -d 2 -p tcp -e 1040 -c 0 -i 22 -a 0 -x {1.0 3.1 12 ------- null}
+ -t 0.81704 -s 2 -d 3 -p tcp -e 1040 -c 0 -i 22 -a 0 -x {1.0 3.1 12 ------- null}
- -t 0.81784 -s 2 -d 3 -p tcp -e 1040 -c 0 -i 15 -a 0 -x {1.0 3.1 8 ------- null}
h -t 0.81784 -s 2 -d 3 -p tcp -e 1040 -c 0 -i 15 -a 0 -x {1.0 3.1 -1 ------- null}
- -t 0.81952 -s 1 -d 2 -p tcp -e 1040 -c 0 -i 25 -a 0 -x {1.0 3.1 14 ------- null}
h -t 0.81952 -s 1 -d 2 -p tcp -e 1040 -c 0 -i 25 -a 0 -x {1.0 3.1 -1 ------- null}
r -t 0.82184 -s 3 -d 2 -p ack -e 40 -c 0 -i 23 -a 0 -x {3.1 1.0 7 ------- null}
+ -t 0.82184 -s 2 -d 1 -p ack -e 40 -c 0 -i 23 -a 0 -x {3.1 1.0 7 ------- null}
- -t 0.82184 -s 2 -d 1 -p ack -e 40 -c 0 -i 23 -a 0 -x {3.1 1.0 7 ------- null}
h -t 0.82184 -s 2 -d 1 -p ack -e 40 -c 0 -i 23 -a 0 -x {3.1 1.0 -1 ------- null}
r -t 0.82784 -s 2 -d 3 -p tcp -e 1040 -c 0 -i 16 -a 0 -x {0.0 3.0 1 ------- null}
+ -t 0.82784 -s 3 -d 2 -p ack -e 40 -c 0 -i 26 -a 0 -x {3.0 0.0 1 ------- null}
- -t 0.82784 -s 3 -d 2 -p ack -e 40 -c 0 -i 26 -a 0 -x {3.0 0.0 1 ------- null}
h -t 0.82784 -s 3 -d 2 -p ack -e 40 -c 0 -i 26 -a 0 -x {3.0 0.0 -1 ------- null}
r -t 0.829519999999999 -s 1 -d 2 -p tcp -e 1040 -c 0 -i 24 -a 0 -x {1.0 3.1 13 ------- null}
+ -t 0.829519999999999 -s 2 -d 3 -p tcp -e 1040 -c 0 -i 24 -a 0 -x {1.0 3.1 13 ------- null}
r -t 0.832 -s 2 -d 1 -p ack -e 40 -c 0 -i 23 -a 0 -x {3.1 1.0 7 ------- null}
+ -t 0.832 -s 1 -d 2 -p tcp -e 1040 -c 0 -i 27 -a 0 -x {1.0 3.1 15 ------- null}
- -t 0.832 -s 1 -d 2 -p tcp -e 1040 -c 0 -i 27 -a 0 -x {1.0 3.1 15 ------- null}
h -t 0.832 -s 1 -d 2 -p tcp -e 1040 -c 0 -i 27 -a 0 -x {1.0 3.1 -1 ------- null}
+ -t 0.832 -s 1 -d 2 -p tcp -e 1040 -c 0 -i 28 -a 0 -x {1.0 3.1 16 ------- null}
r -t 0.83368 -s 1 -d 2 -p tcp -e 1040 -c 0 -i 25 -a 0 -x {1.0 3.1 14 ------- null}
+ -t 0.83368 -s 2 -d 3 -p tcp -e 1040 -c 0 -i 25 -a 0 -x {1.0 3.1 14 ------- null}
- -t 0.83448 -s 2 -d 3 -p tcp -e 1040 -c 0 -i 18 -a 0 -x {1.0 3.1 9 ------- null}
h -t 0.83448 -s 2 -d 3 -p tcp -e 1040 -c 0 -i 18 -a 0 -x {1.0 3.1 -1 ------- null}
- -t 0.83616 -s 1 -d 2 -p tcp -e 1040 -c 0 -i 28 -a 0 -x {1.0 3.1 16 ------- null}
h -t 0.83616 -s 1 -d 2 -p tcp -e 1040 -c 0 -i 28 -a 0 -x {1.0 3.1 -1 ------- null}
r -t 0.83848 -s 3 -d 2 -p ack -e 40 -c 0 -i 26 -a 0 -x {3.0 0.0 1 ------- null}
+ -t 0.83848 -s 2 -d 0 -p ack -e 40 -c 0 -i 26 -a 0 -x {3.0 0.0 1 ------- null}
- -t 0.83848 -s 2 -d 0 -p ack -e 40 -c 0 -i 26 -a 0 -x {3.0 0.0 1 ------- null}
h -t 0.83848 -s 2 -d 0 -p ack -e 40 -c 0 -i 26 -a 0 -x {3.0 0.0 -1 ------- null}
r -t 0.84448 -s 2 -d 3 -p tcp -e 1040 -c 0 -i 15 -a 0 -x {1.0 3.1 8 ------- null}
+ -t 0.84448 -s 3 -d 2 -p ack -e 40 -c 0 -i 29 -a 0 -x {3.1 1.0 8 ------- null}
- -t 0.84448 -s 3 -d 2 -p ack -e 40 -c 0 -i 29 -a 0 -x {3.1 1.0 8 ------- null}
h -t 0.84448 -s 3 -d 2 -p ack -e 40 -c 0 -i 29 -a 0 -x {3.1 1.0 -1 ------- null}
r -t 0.846159999999999 -s 1 -d 2 -p tcp -e 1040 -c 0 -i 27 -a 0 -x {1.0 3.1 15 ------- null}
+ -t 0.846159999999999 -s 2 -d 3 -p tcp -e 1040 -c 0 -i 27 -a 0 -x {1.0 3.1 15 ------- null}
r -t 0.84864 -s 2 -d 0 -p ack -e 40 -c 0 -i 26 -a 0 -x {3.0 0.0 1 ------- null}
r -t 0.85032 -s 1 -d 2 -p tcp -e 1040 -c 0 -i 28 -a 0 -x {1.0 3.1 16 ------- null}
+ -t 0.85032 -s 2 -d 3 -p tcp -e 1040 -c 0 -i 28 -a 0 -x {1.0 3.1 16 ------- null}
- -t 0.85112 -s 2 -d 3 -p tcp -e 1040 -c 0 -i 19 -a 0 -x {1.0 3.1 10 ------- null}
h -t 0.85112 -s 2 -d 3 -p tcp -e 1040 -c 0 -i 19 -a 0 -x {1.0 3.1 -1 ------- null}
r -t 0.85512 -s 3 -d 2 -p ack -e 40 -c 0 -i 29 -a 0 -x {3.1 1.0 8 ------- null}
+ -t 0.85512 -s 2 -d 1 -p ack -e 40 -c 0 -i 29 -a 0 -x {3.1 1.0 8 ------- null}
- -t 0.85512 -s 2 -d 1 -p ack -e 40 -c 0 -i 29 -a 0 -x {3.1 1.0 8 ------- null}
h -t 0.85512 -s 2 -d 1 -p ack -e 40 -c 0 -i 29 -a 0 -x {3.1 1.0 -1 ------- null}
r -t 0.86112 -s 2 -d 3 -p tcp -e 1040 -c 0 -i 18 -a 0 -x {1.0 3.1 9 ------- null}
+ -t 0.86112 -s 3 -d 2 -p ack -e 40 -c 0 -i 30 -a 0 -x {3.1 1.0 9 ------- null}
- -t 0.86112 -s 3 -d 2 -p ack -e 40 -c 0 -i 30 -a 0 -x {3.1 1.0 9 ------- null}
h -t 0.86112 -s 3 -d 2 -p ack -e 40 -c 0 -i 30 -a 0 -x {3.1 1.0 -1 ------- null}
r -t 0.865279999999999 -s 2 -d 1 -p ack -e 40 -c 0 -i 29 -a 0 -x {3.1 1.0 8 ------- null}
+ -t 0.865279999999999 -s 1 -d 2 -p tcp -e 1040 -c 0 -i 31 -a 0 -x {1.0 3.1 17 ------- null}
- -t 0.865279999999999 -s 1 -d 2 -p tcp -e 1040 -c 0 -i 31 -a 0 -x {1.0 3.1 17 ------- null}
h -t 0.865279999999999 -s 1 -d 2 -p tcp -e 1040 -c 0 -i 31 -a 0 -x {1.0 3.1 -1 ------- null}
+ -t 0.865279999999999 -s 1 -d 2 -p tcp -e 1040 -c 0 -i 32 -a 0 -x {1.0 3.1 18 ------- null}
- -t 0.86776 -s 2 -d 3 -p tcp -e 1040 -c 0 -i 21 -a 0 -x {1.0 3.1 11 ------- null}
h -t 0.86776 -s 2 -d 3 -p tcp -e 1040 -c 0 -i 21 -a 0 -x {1.0 3.1 -1 ------- null}
- -t 0.86944 -s 1 -d 2 -p tcp -e 1040 -c 0 -i 32 -a 0 -x {1.0 3.1 18 ------- null}
h -t 0.86944 -s 1 -d 2 -p tcp -e 1040 -c 0 -i 32 -a 0 -x {1.0 3.1 -1 ------- null}
r -t 0.87176 -s 3 -d 2 -p ack -e 40 -c 0 -i 30 -a 0 -x {3.1 1.0 9 ------- null}
+ -t 0.87176 -s 2 -d 1 -p ack -e 40 -c 0 -i 30 -a 0 -x {3.1 1.0 9 ------- null}
- -t 0.87176 -s 2 -d 1 -p ack -e 40 -c 0 -i 30 -a 0 -x {3.1 1.0 9 ------- null}
h -t 0.87176 -s 2 -d 1 -p ack -e 40 -c 0 -i 30 -a 0 -x {3.1 1.0 -1 ------- null}
r -t 0.87776 -s 2 -d 3 -p tcp -e 1040 -c 0 -i 19 -a 0 -x {1.0 3.1 10 ------- null}
+ -t 0.87776 -s 3 -d 2 -p ack -e 40 -c 0 -i 33 -a 0 -x {3.1 1.0 10 ------- null}
- -t 0.87776 -s 3 -d 2 -p ack -e 40 -c 0 -i 33 -a 0 -x {3.1 1.0 10 ------- null}
h -t 0.87776 -s 3 -d 2 -p ack -e 40 -c 0 -i 33 -a 0 -x {3.1 1.0 -1 ------- null}
r -t 0.879439999999999 -s 1 -d 2 -p tcp -e 1040 -c 0 -i 31 -a 0 -x {1.0 3.1 17 ------- null}
+ -t 0.879439999999999 -s 2 -d 3 -p tcp -e 1040 -c 0 -i 31 -a 0 -x {1.0 3.1 17 ------- null}
r -t 0.881919999999999 -s 2 -d 1 -p ack -e 40 -c 0 -i 30 -a 0 -x {3.1 1.0 9 ------- null}
+ -t 0.881919999999999 -s 1 -d 2 -p tcp -e 1040 -c 0 -i 34 -a 0 -x {1.0 3.1 19 ------- null}
- -t 0.881919999999999 -s 1 -d 2 -p tcp -e 1040 -c 0 -i 34 -a 0 -x {1.0 3.1 19 ------- null}
h -t 0.881919999999999 -s 1 -d 2 -p tcp -e 1040 -c 0 -i 34 -a 0 -x {1.0 3.1 -1 ------- null}
+ -t 0.881919999999999 -s 1 -d 2 -p tcp -e 1040 -c 0 -i 35 -a 0 -x {1.0 3.1 20 ------- null}
r -t 0.883599999999999 -s 1 -d 2 -p tcp -e 1040 -c 0 -i 32 -a 0 -x {1.0 3.1 18 ------- null}
+ -t 0.883599999999999 -s 2 -d 3 -p tcp -e 1040 -c 0 -i 32 -a 0 -x {1.0 3.1 18 ------- null}
- -t 0.8844 -s 2 -d 3 -p tcp -e 1040 -c 0 -i 22 -a 0 -x {1.0 3.1 12 ------- null}
h -t 0.8844 -s 2 -d 3 -p tcp -e 1040 -c 0 -i 22 -a 0 -x {1.0 3.1 -1 ------- null}
- -t 0.88608 -s 1 -d 2 -p tcp -e 1040 -c 0 -i 35 -a 0 -x {1.0 3.1 20 ------- null}
h -t 0.88608 -s 1 -d 2 -p tcp -e 1040 -c 0 -i 35 -a 0 -x {1.0 3.1 -1 ------- null}
r -t 0.8884 -s 3 -d 2 -p ack -e 40 -c 0 -i 33 -a 0 -x {3.1 1.0 10 ------- null}
+ -t 0.8884 -s 2 -d 1 -p ack -e 40 -c 0 -i 33 -a 0 -x {3.1 1.0 10 ------- null}
- -t 0.8884 -s 2 -d 1 -p ack -e 40 -c 0 -i 33 -a 0 -x {3.1 1.0 10 ------- null}
h -t 0.8884 -s 2 -d 1 -p ack -e 40 -c 0 -i 33 -a 0 -x {3.1 1.0 -1 ------- null}
r -t 0.8944 -s 2 -d 3 -p tcp -e 1040 -c 0 -i 21 -a 0 -x {1.0 3.1 11 ------- null}
+ -t 0.8944 -s 3 -d 2 -p ack -e 40 -c 0 -i 36 -a 0 -x {3.1 1.0 11 ------- null}
- -t 0.8944 -s 3 -d 2 -p ack -e 40 -c 0 -i 36 -a 0 -x {3.1 1.0 11 ------- null}
h -t 0.8944 -s 3 -d 2 -p ack -e 40 -c 0 -i 36 -a 0 -x {3.1 1.0 -1 ------- null}
r -t 0.896079999999999 -s 1 -d 2 -p tcp -e 1040 -c 0 -i 34 -a 0 -x {1.0 3.1 19 ------- null}
+ -t 0.896079999999999 -s 2 -d 3 -p tcp -e 1040 -c 0 -i 34 -a 0 -x {1.0 3.1 19 ------- null}
r -t 0.898559999999999 -s 2 -d 1 -p ack -e 40 -c 0 -i 33 -a 0 -x {3.1 1.0 10 ------- null}
+ -t 0.898559999999999 -s 1 -d 2 -p tcp -e 1040 -c 0 -i 37 -a 0 -x {1.0 3.1 21 ------- null}
- -t 0.898559999999999 -s 1 -d 2 -p tcp -e 1040 -c 0 -i 37 -a 0 -x {1.0 3.1 21 ------- null}
h -t 0.898559999999999 -s 1 -d 2 -p tcp -e 1040 -c 0 -i 37 -a 0 -x {1.0 3.1 -1 ------- null}
+ -t 0.898559999999999 -s 1 -d 2 -p tcp -e 1040 -c 0 -i 38 -a 0 -x {1.0 3.1 22 ------- null}
r -t 0.900239999999999 -s 1 -d 2 -p tcp -e 1040 -c 0 -i 35 -a 0 -x {1.0 3.1 20 ------- null}
+ -t 0.900239999999999 -s 2 -d 3 -p tcp -e 1040 -c 0 -i 35 -a 0 -x {1.0 3.1 20 ------- null}
- -t 0.90104 -s 2 -d 3 -p tcp -e 1040 -c 0 -i 24 -a 0 -x {1.0 3.1 13 ------- null}
h -t 0.90104 -s 2 -d 3 -p tcp -e 1040 -c 0 -i 24 -a 0 -x {1.0 3.1 -1 ------- null}
- -t 0.90272 -s 1 -d 2 -p tcp -e 1040 -c 0 -i 38 -a 0 -x {1.0 3.1 22 ------- null}
h -t 0.90272 -s 1 -d 2 -p tcp -e 1040 -c 0 -i 38 -a 0 -x {1.0 3.1 -1 ------- null}
r -t 0.90504 -s 3 -d 2 -p ack -e 40 -c 0 -i 36 -a 0 -x {3.1 1.0 11 ------- null}
+ -t 0.90504 -s 2 -d 1 -p ack -e 40 -c 0 -i 36 -a 0 -x {3.1 1.0 11 ------- null}
- -t 0.90504 -s 2 -d 1 -p ack -e 40 -c 0 -i 36 -a 0 -x {3.1 1.0 11 ------- null}
h -t 0.90504 -s 2 -d 1 -p ack -e 40 -c 0 -i 36 -a 0 -x {3.1 1.0 -1 ------- null}
r -t 0.91104 -s 2 -d 3 -p tcp -e 1040 -c 0 -i 22 -a 0 -x {1.0 3.1 12 ------- null}
+ -t 0.91104 -s 3 -d 2 -p ack -e 40 -c 0 -i 39 -a 0 -x {3.1 1.0 12 ------- null}
- -t 0.91104 -s 3 -d 2 -p ack -e 40 -c 0 -i 39 -a 0 -x {3.1 1.0 12 ------- null}
h -t 0.91104 -s 3 -d 2 -p ack -e 40 -c 0 -i 39 -a 0 -x {3.1 1.0 -1 ------- null}
r -t 0.912719999999999 -s 1 -d 2 -p tcp -e 1040 -c 0 -i 37 -a 0 -x {1.0 3.1 21 ------- null}
+ -t 0.912719999999999 -s 2 -d 3 -p tcp -e 1040 -c 0 -i 37 -a 0 -x {1.0 3.1 21 ------- null}
r -t 0.915199999999999 -s 2 -d 1 -p ack -e 40 -c 0 -i 36 -a 0 -x {3.1 1.0 11 ------- null}
+ -t 0.915199999999999 -s 1 -d 2 -p tcp -e 1040 -c 0 -i 40 -a 0 -x {1.0 3.1 23 ------- null}
- -t 0.915199999999999 -s 1 -d 2 -p tcp -e 1040 -c 0 -i 40 -a 0 -x {1.0 3.1 23 ------- null}
h -t 0.915199999999999 -s 1 -d 2 -p tcp -e 1040 -c 0 -i 40 -a 0 -x {1.0 3.1 -1 ------- null}
+ -t 0.915199999999999 -s 1 -d 2 -p tcp -e 1040 -c 0 -i 41 -a 0 -x {1.0 3.1 24 ------- null}
r -t 0.916879999999999 -s 1 -d 2 -p tcp -e 1040 -c 0 -i 38 -a 0 -x {1.0 3.1 22 ------- null}
+ -t 0.916879999999999 -s 2 -d 3 -p tcp -e 1040 -c 0 -i 38 -a 0 -x {1.0 3.1 22 ------- null}
- -t 0.917679999999999 -s 2 -d 3 -p tcp -e 1040 -c 0 -i 25 -a 0 -x {1.0 3.1 14 ------- null}
h -t 0.917679999999999 -s 2 -d 3 -p tcp -e 1040 -c 0 -i 25 -a 0 -x {1.0 3.1 -1 ------- null}
- -t 0.91936 -s 1 -d 2 -p tcp -e 1040 -c 0 -i 41 -a 0 -x {1.0 3.1 24 ------- null}
h -t 0.91936 -s 1 -d 2 -p tcp -e 1040 -c 0 -i 41 -a 0 -x {1.0 3.1 -1 ------- null}
r -t 0.921679999999999 -s 3 -d 2 -p ack -e 40 -c 0 -i 39 -a 0 -x {3.1 1.0 12 ------- null}
+ -t 0.921679999999999 -s 2 -d 1 -p ack -e 40 -c 0 -i 39 -a 0 -x {3.1 1.0 12 ------- null}
- -t 0.921679999999999 -s 2 -d 1 -p ack -e 40 -c 0 -i 39 -a 0 -x {3.1 1.0 12 ------- null}
h -t 0.921679999999999 -s 2 -d 1 -p ack -e 40 -c 0 -i 39 -a 0 -x {3.1 1.0 -1 ------- null}
r -t 0.92768 -s 2 -d 3 -p tcp -e 1040 -c 0 -i 24 -a 0 -x {1.0 3.1 13 ------- null}
+ -t 0.92768 -s 3 -d 2 -p ack -e 40 -c 0 -i 42 -a 0 -x {3.1 1.0 13 ------- null}
- -t 0.92768 -s 3 -d 2 -p ack -e 40 -c 0 -i 42 -a 0 -x {3.1 1.0 13 ------- null}
h -t 0.92768 -s 3 -d 2 -p ack -e 40 -c 0 -i 42 -a 0 -x {3.1 1.0 -1 ------- null}
r -t 0.929359999999999 -s 1 -d 2 -p tcp -e 1040 -c 0 -i 40 -a 0 -x {1.0 3.1 23 ------- null}
+ -t 0.929359999999999 -s 2 -d 3 -p tcp -e 1040 -c 0 -i 40 -a 0 -x {1.0 3.1 23 ------- null}
r -t 0.931839999999999 -s 2 -d 1 -p ack -e 40 -c 0 -i 39 -a 0 -x {3.1 1.0 12 ------- null}
+ -t 0.931839999999999 -s 1 -d 2 -p tcp -e 1040 -c 0 -i 43 -a 0 -x {1.0 3.1 25 ------- null}
- -t 0.931839999999999 -s 1 -d 2 -p tcp -e 1040 -c 0 -i 43 -a 0 -x {1.0 3.1 25 ------- null}
h -t 0.931839999999999 -s 1 -d 2 -p tcp -e 1040 -c 0 -i 43 -a 0 -x {1.0 3.1 -1 ------- null}
+ -t 0.931839999999999 -s 1 -d 2 -p tcp -e 1040 -c 0 -i 44 -a 0 -x {1.0 3.1 26 ------- null}
r -t 0.933519999999999 -s 1 -d 2 -p tcp -e 1040 -c 0 -i 41 -a 0 -x {1.0 3.1 24 ------- null}
+ -t 0.933519999999999 -s 2 -d 3 -p tcp -e 1040 -c 0 -i 41 -a 0 -x {1.0 3.1 24 ------- null}
- -t 0.934319999999999 -s 2 -d 3 -p tcp -e 1040 -c 0 -i 27 -a 0 -x {1.0 3.1 15 ------- null}
h -t 0.934319999999999 -s 2 -d 3 -p tcp -e 1040 -c 0 -i 27 -a 0 -x {1.0 3.1 -1 ------- null}
- -t 0.935999999999999 -s 1 -d 2 -p tcp -e 1040 -c 0 -i 44 -a 0 -x {1.0 3.1 26 ------- null}
h -t 0.935999999999999 -s 1 -d 2 -p tcp -e 1040 -c 0 -i 44 -a 0 -x {1.0 3.1 -1 ------- null}
r -t 0.938319999999999 -s 3 -d 2 -p ack -e 40 -c 0 -i 42 -a 0 -x {3.1 1.0 13 ------- null}
+ -t 0.938319999999999 -s 2 -d 1 -p ack -e 40 -c 0 -i 42 -a 0 -x {3.1 1.0 13 ------- null}
- -t 0.938319999999999 -s 2 -d 1 -p ack -e 40 -c 0 -i 42 -a 0 -x {3.1 1.0 13 ------- null}
h -t 0.938319999999999 -s 2 -d 1 -p ack -e 40 -c 0 -i 42 -a 0 -x {3.1 1.0 -1 ------- null}
r -t 0.944319999999999 -s 2 -d 3 -p tcp -e 1040 -c 0 -i 25 -a 0 -x {1.0 3.1 14 ------- null}
+ -t 0.944319999999999 -s 3 -d 2 -p ack -e 40 -c 0 -i 45 -a 0 -x {3.1 1.0 14 ------- null}
- -t 0.944319999999999 -s 3 -d 2 -p ack -e 40 -c 0 -i 45 -a 0 -x {3.1 1.0 14 ------- null}
h -t 0.944319999999999 -s 3 -d 2 -p ack -e 40 -c 0 -i 45 -a 0 -x {3.1 1.0 -1 ------- null}
r -t 0.945999999999999 -s 1 -d 2 -p tcp -e 1040 -c 0 -i 43 -a 0 -x {1.0 3.1 25 ------- null}
+ -t 0.945999999999999 -s 2 -d 3 -p tcp -e 1040 -c 0 -i 43 -a 0 -x {1.0 3.1 25 ------- null}
r -t 0.948479999999999 -s 2 -d 1 -p ack -e 40 -c 0 -i 42 -a 0 -x {3.1 1.0 13 ------- null}
+ -t 0.948479999999999 -s 1 -d 2 -p tcp -e 1040 -c 0 -i 46 -a 0 -x {1.0 3.1 27 ------- null}
- -t 0.948479999999999 -s 1 -d 2 -p tcp -e 1040 -c 0 -i 46 -a 0 -x {1.0 3.1 27 ------- null}
h -t 0.948479999999999 -s 1 -d 2 -p tcp -e 1040 -c 0 -i 46 -a 0 -x {1.0 3.1 -1 ------- null}
+ -t 0.948479999999999 -s 1 -d 2 -p tcp -e 1040 -c 0 -i 47 -a 0 -x {1.0 3.1 28 ------- null}
r -t 0.950159999999999 -s 1 -d 2 -p tcp -e 1040 -c 0 -i 44 -a 0 -x {1.0 3.1 26 ------- null}
+ -t 0.950159999999999 -s 2 -d 3 -p tcp -e 1040 -c 0 -i 44 -a 0 -x {1.0 3.1 26 ------- null}
- -t 0.950959999999999 -s 2 -d 3 -p tcp -e 1040 -c 0 -i 28 -a 0 -x {1.0 3.1 16 ------- null}
h -t 0.950959999999999 -s 2 -d 3 -p tcp -e 1040 -c 0 -i 28 -a 0 -x {1.0 3.1 -1 ------- null}
- -t 0.952639999999999 -s 1 -d 2 -p tcp -e 1040 -c 0 -i 47 -a 0 -x {1.0 3.1 28 ------- null}
h -t 0.952639999999999 -s 1 -d 2 -p tcp -e 1040 -c 0 -i 47 -a 0 -x {1.0 3.1 -1 ------- null}
r -t 0.954959999999999 -s 3 -d 2 -p ack -e 40 -c 0 -i 45 -a 0 -x {3.1 1.0 14 ------- null}
+ -t 0.954959999999999 -s 2 -d 1 -p ack -e 40 -c 0 -i 45 -a 0 -x {3.1 1.0 14 ------- null}
- -t 0.954959999999999 -s 2 -d 1 -p ack -e 40 -c 0 -i 45 -a 0 -x {3.1 1.0 14 ------- null}
h -t 0.954959999999999 -s 2 -d 1 -p ack -e 40 -c 0 -i 45 -a 0 -x {3.1 1.0 -1 ------- null}
r -t 0.960959999999999 -s 2 -d 3 -p tcp -e 1040 -c 0 -i 27 -a 0 -x {1.0 3.1 15 ------- null}
+ -t 0.960959999999999 -s 3 -d 2 -p ack -e 40 -c 0 -i 48 -a 0 -x {3.1 1.0 15 ------- null}
- -t 0.960959999999999 -s 3 -d 2 -p ack -e 40 -c 0 -i 48 -a 0 -x {3.1 1.0 15 ------- null}
h -t 0.960959999999999 -s 3 -d 2 -p ack -e 40 -c 0 -i 48 -a 0 -x {3.1 1.0 -1 ------- null}
r -t 0.962639999999999 -s 1 -d 2 -p tcp -e 1040 -c 0 -i 46 -a 0 -x {1.0 3.1 27 ------- null}
+ -t 0.962639999999999 -s 2 -d 3 -p tcp -e 1040 -c 0 -i 46 -a 0 -x {1.0 3.1 27 ------- null}
r -t 0.965119999999999 -s 2 -d 1 -p ack -e 40 -c 0 -i 45 -a 0 -x {3.1 1.0 14 ------- null}
+ -t 0.965119999999999 -s 1 -d 2 -p tcp -e 1040 -c 0 -i 49 -a 0 -x {1.0 3.1 29 ------- null}
- -t 0.965119999999999 -s 1 -d 2 -p tcp -e 1040 -c 0 -i 49 -a 0 -x {1.0 3.1 29 ------- null}
h -t 0.965119999999999 -s 1 -d 2 -p tcp -e 1040 -c 0 -i 49 -a 0 -x {1.0 3.1 -1 ------- null}
+ -t 0.965119999999999 -s 1 -d 2 -p tcp -e 1040 -c 0 -i 50 -a 0 -x {1.0 3.1 30 ------- null}