+ 0.6 1 2 tcp 40 ------- 0 1.0 3.1 0 0
- 0.6 1 2 tcp 40 ------- 0 1.0 3.1 0 0
r 0.61016 1 2 tcp 40 ------- 0 1.0 3.1 0 0
+ 0.61016 2 3 tcp 40 ------- 0 1.0 3.1 0 0
- 0.61016 2 3 tcp 40 ------- 0 1.0 3.1 0 0
r 0.6208 2 3 tcp 40 ------- 0 1.0 3.1 0 0
+ 0.6208 3 2 ack 40 ------- 0 3.1 1.0 0 1
- 0.6208 3 2 ack 40 ------- 0 3.1 1.0 0 1
r 0.63144 3 2 ack 40 ------- 0 3.1 1.0 0 1
+ 0.63144 2 1 ack 40 ------- 0 3.1 1.0 0 1
- 0.63144 2 1 ack 40 ------- 0 3.1 1.0 0 1
r 0.6416 2 1 ack 40 ------- 0 3.1 1.0 0 1
+ 0.6416 1 2 tcp 1040 ------- 0 1.0 3.1 1 2
- 0.6416 1 2 tcp 1040 ------- 0 1.0 3.1 1 2
+ 0.6416 1 2 tcp 1040 ------- 0 1.0 3.1 2 3
- 0.64576 1 2 tcp 1040 ------- 0 1.0 3.1 2 3
r 0.65576 1 2 tcp 1040 ------- 0 1.0 3.1 1 2
+ 0.65576 2 3 tcp 1040 ------- 0 1.0 3.1 1 2
- 0.65576 2 3 tcp 1040 ------- 0 1.0 3.1 1 2
r 0.65992 1 2 tcp 1040 ------- 0 1.0 3.1 2 3
+ 0.65992 2 3 tcp 1040 ------- 0 1.0 3.1 2 3
- 0.6724 2 3 tcp 1040 ------- 0 1.0 3.1 2 3
r 0.6824 2 3 tcp 1040 ------- 0 1.0 3.1 1 2
+ 0.6824 3 2 ack 40 ------- 0 3.1 1.0 1 4
- 0.6824 3 2 ack 40 ------- 0 3.1 1.0 1 4
r 0.69304 3 2 ack 40 ------- 0 3.1 1.0 1 4
+ 0.69304 2 1 ack 40 ------- 0 3.1 1.0 1 4
- 0.69304 2 1 ack 40 ------- 0 3.1 1.0 1 4
r 0.69904 2 3 tcp 1040 ------- 0 1.0 3.1 2 3
+ 0.69904 3 2 ack 40 ------- 0 3.1 1.0 2 5
- 0.69904 3 2 ack 40 ------- 0 3.1 1.0 2 5
r 0.7032 2 1 ack 40 ------- 0 3.1 1.0 1 4
+ 0.7032 1 2 tcp 1040 ------- 0 1.0 3.1 3 6
- 0.7032 1 2 tcp 1040 ------- 0 1.0 3.1 3 6
+ 0.7032 1 2 tcp 1040 ------- 0 1.0 3.1 4 7
- 0.70736 1 2 tcp 1040 ------- 0 1.0 3.1 4 7
+ 0.70779 0 2 tcp 40 ------- 0 0.0 3.0 0 8
- 0.70779 0 2 tcp 40 ------- 0 0.0 3.0 0 8
r 0.70968 3 2 ack 40 ------- 0 3.1 1.0 2 5
+ 0.70968 2 1 ack 40 ------- 0 3.1 1.0 2 5
- 0.70968 2 1 ack 40 ------- 0 3.1 1.0 2 5
r 0.71736 1 2 tcp 1040 ------- 0 1.0 3.1 3 6
+ 0.71736 2 3 tcp 1040 ------- 0 1.0 3.1 3 6
- 0.71736 2 3 tcp 1040 ------- 0 1.0 3.1 3 6
r 0.71795 0 2 tcp 40 ------- 0 0.0 3.0 0 8
+ 0.71795 2 3 tcp 40 ------- 0 0.0 3.0 0 8
r 0.71984 2 1 ack 40 ------- 0 3.1 1.0 2 5
+ 0.71984 1 2 tcp 1040 ------- 0 1.0 3.1 5 9
- 0.71984 1 2 tcp 1040 ------- 0 1.0 3.1 5 9
+ 0.71984 1 2 tcp 1040 ------- 0 1.0 3.1 6 10
r 0.72152 1 2 tcp 1040 ------- 0 1.0 3.1 4 7
+ 0.72152 2 3 tcp 1040 ------- 0 1.0 3.1 4 7
- 0.724 1 2 tcp 1040 ------- 0 1.0 3.1 6 10
- 0.734 2 3 tcp 40 ------- 0 0.0 3.0 0 8
r 0.734 1 2 tcp 1040 ------- 0 1.0 3.1 5 9
+ 0.734 2 3 tcp 1040 ------- 0 1.0 3.1 5 9
- 0.73464 2 3 tcp 1040 ------- 0 1.0 3.1 4 7
r 0.73816 1 2 tcp 1040 ------- 0 1.0 3.1 6 10
+ 0.73816 2 3 tcp 1040 ------- 0 1.0 3.1 6 10
r 0.744 2 3 tcp 1040 ------- 0 1.0 3.1 3 6
+ 0.744 3 2 ack 40 ------- 0 3.1 1.0 3 11
- 0.744 3 2 ack 40 ------- 0 3.1 1.0 3 11
r 0.74464 2 3 tcp 40 ------- 0 0.0 3.0 0 8
+ 0.74464 3 2 ack 40 ------- 0 3.0 0.0 0 12
- 0.74464 3 2 ack 40 ------- 0 3.0 0.0 0 12
- 0.75128 2 3 tcp 1040 ------- 0 1.0 3.1 5 9
r 0.75464 3 2 ack 40 ------- 0 3.1 1.0 3 11
+ 0.75464 2 1 ack 40 ------- 0 3.1 1.0 3 11
- 0.75464 2 1 ack 40 ------- 0 3.1 1.0 3 11
r 0.75528 3 2 ack 40 ------- 0 3.0 0.0 0 12
+ 0.75528 2 0 ack 40 ------- 0 3.0 0.0 0 12
- 0.75528 2 0 ack 40 ------- 0 3.0 0.0 0 12
r 0.76128 2 3 tcp 1040 ------- 0 1.0 3.1 4 7
+ 0.76128 3 2 ack 40 ------- 0 3.1 1.0 4 13
- 0.76128 3 2 ack 40 ------- 0 3.1 1.0 4 13
r 0.7648 2 1 ack 40 ------- 0 3.1 1.0 3 11
+ 0.7648 1 2 tcp 1040 ------- 0 1.0 3.1 7 14
- 0.7648 1 2 tcp 1040 ------- 0 1.0 3.1 7 14
+ 0.7648 1 2 tcp 1040 ------- 0 1.0 3.1 8 15
r 0.76544 2 0 ack 40 ------- 0 3.0 0.0 0 12
+ 0.76544 0 2 tcp 1040 ------- 0 0.0 3.0 1 16
- 0.76544 0 2 tcp 1040 ------- 0 0.0 3.0 1 16
- 0.76792 2 3 tcp 1040 ------- 0 1.0 3.1 6 10
- 0.76896 1 2 tcp 1040 ------- 0 1.0 3.1 8 15
r 0.77192 3 2 ack 40 ------- 0 3.1 1.0 4 13
+ 0.77192 2 1 ack 40 ------- 0 3.1 1.0 4 13
- 0.77192 2 1 ack 40 ------- 0 3.1 1.0 4 13
r 0.77792 2 3 tcp 1040 ------- 0 1.0 3.1 5 9
+ 0.77792 3 2 ack 40 ------- 0 3.1 1.0 5 17
- 0.77792 3 2 ack 40 ------- 0 3.1 1.0 5 17
r 0.77896 1 2 tcp 1040 ------- 0 1.0 3.1 7 14
+ 0.77896 2 3 tcp 1040 ------- 0 1.0 3.1 7 14
r 0.7796 0 2 tcp 1040 ------- 0 0.0 3.0 1 16
+ 0.7796 2 3 tcp 1040 ------- 0 0.0 3.0 1 16
r 0.78208 2 1 ack 40 ------- 0 3.1 1.0 4 13
+ 0.78208 1 2 tcp 1040 ------- 0 1.0 3.1 9 18
- 0.78208 1 2 tcp 1040 ------- 0 1.0 3.1 9 18
+ 0.78208 1 2 tcp 1040 ------- 0 1.0 3.1 10 19
r 0.78312 1 2 tcp 1040 ------- 0 1.0 3.1 8 15
+ 0.78312 2 3 tcp 1040 ------- 0 1.0 3.1 8 15
- 0.78456 2 3 tcp 1040 ------- 0 1.0 3.1 7 14
- 0.78624 1 2 tcp 1040 ------- 0 1.0 3.1 10 19
r 0.78856 3 2 ack 40 ------- 0 3.1 1.0 5 17
+ 0.78856 2 1 ack 40 ------- 0 3.1 1.0 5 17
- 0.78856 2 1 ack 40 ------- 0 3.1 1.0 5 17
r 0.79456 2 3 tcp 1040 ------- 0 1.0 3.1 6 10
+ 0.79456 3 2 ack 40 ------- 0 3.1 1.0 6 20
- 0.79456 3 2 ack 40 ------- 0 3.1 1.0 6 20
r 0.79624 1 2 tcp 1040 ------- 0 1.0 3.1 9 18
+ 0.79624 2 3 tcp 1040 ------- 0 1.0 3.1 9 18
r 0.79872 2 1 ack 40 ------- 0 3.1 1.0 5 17
+ 0.79872 1 2 tcp 1040 ------- 0 1.0 3.1 11 21
- 0.79872 1 2 tcp 1040 ------- 0 1.0 3.1 11 21
+ 0.79872 1 2 tcp 1040 ------- 0 1.0 3.1 12 22
r 0.8004 1 2 tcp 1040 ------- 0 1.0 3.1 10 19
+ 0.8004 2 3 tcp 1040 ------- 0 1.0 3.1 10 19
- 0.8012 2 3 tcp 1040 ------- 0 0.0 3.0 1 16
- 0.80288 1 2 tcp 1040 ------- 0 1.0 3.1 12 22
r 0.8052 3 2 ack 40 ------- 0 3.1 1.0 6 20
+ 0.8052 2 1 ack 40 ------- 0 3.1 1.0 6 20
- 0.8052 2 1 ack 40 ------- 0 3.1 1.0 6 20
r 0.8112 2 3 tcp 1040 ------- 0 1.0 3.1 7 14
+ 0.8112 3 2 ack 40 ------- 0 3.1 1.0 7 23
- 0.8112 3 2 ack 40 ------- 0 3.1 1.0 7 23
r 0.81288 1 2 tcp 1040 ------- 0 1.0 3.1 11 21
+ 0.81288 2 3 tcp 1040 ------- 0 1.0 3.1 11 21
r 0.81536 2 1 ack 40 ------- 0 3.1 1.0 6 20
+ 0.81536 1 2 tcp 1040 ------- 0 1.0 3.1 13 24
- 0.81536 1 2 tcp 1040 ------- 0 1.0 3.1 13 24
+ 0.81536 1 2 tcp 1040 ------- 0 1.0 3.1 14 25
r 0.81704 1 2 tcp 1040 ------- 0 1.0 3.1 12 22
+ 0.81704 2 3 tcp 1040 ------- 0 1.0 3.1 12 22
- 0.81784 2 3 tcp 1040 ------- 0 1.0 3.1 8 15
- 0.81952 1 2 tcp 1040 ------- 0 1.0 3.1 14 25
r 0.82184 3 2 ack 40 ------- 0 3.1 1.0 7 23
+ 0.82184 2 1 ack 40 ------- 0 3.1 1.0 7 23
- 0.82184 2 1 ack 40 ------- 0 3.1 1.0 7 23
r 0.82784 2 3 tcp 1040 ------- 0 0.0 3.0 1 16
+ 0.82784 3 2 ack 40 ------- 0 3.0 0.0 1 26
- 0.82784 3 2 ack 40 ------- 0 3.0 0.0 1 26
r 0.82952 1 2 tcp 1040 ------- 0 1.0 3.1 13 24
+ 0.82952 2 3 tcp 1040 ------- 0 1.0 3.1 13 24
r 0.832 2 1 ack 40 ------- 0 3.1 1.0 7 23
+ 0.832 1 2 tcp 1040 ------- 0 1.0 3.1 15 27
- 0.832 1 2 tcp 1040 ------- 0 1.0 3.1 15 27
+ 0.832 1 2 tcp 1040 ------- 0 1.0 3.1 16 28
r 0.83368 1 2 tcp 1040 ------- 0 1.0 3.1 14 25
+ 0.83368 2 3 tcp 1040 ------- 0 1.0 3.1 14 25
- 0.83448 2 3 tcp 1040 ------- 0 1.0 3.1 9 18
- 0.83616 1 2 tcp 1040 ------- 0 1.0 3.1 16 28
r 0.83848 3 2 ack 40 ------- 0 3.0 0.0 1 26
+ 0.83848 2 0 ack 40 ------- 0 3.0 0.0 1 26
- 0.83848 2 0 ack 40 ------- 0 3.0 0.0 1 26
r 0.84448 2 3 tcp 1040 ------- 0 1.0 3.1 8 15
+ 0.84448 3 2 ack 40 ------- 0 3.1 1.0 8 29
- 0.84448 3 2 ack 40 ------- 0 3.1 1.0 8 29
r 0.84616 1 2 tcp 1040 ------- 0 1.0 3.1 15 27
+ 0.84616 2 3 tcp 1040 ------- 0 1.0 3.1 15 27
r 0.84864 2 0 ack 40 ------- 0 3.0 0.0 1 26
r 0.85032 1 2 tcp 1040 ------- 0 1.0 3.1 16 28
+ 0.85032 2 3 tcp 1040 ------- 0 1.0 3.1 16 28
- 0.85112 2 3 tcp 1040 ------- 0 1.0 3.1 10 19
r 0.85512 3 2 ack 40 ------- 0 3.1 1.0 8 29
+ 0.85512 2 1 ack 40 ------- 0 3.1 1.0 8 29
- 0.85512 2 1 ack 40 ------- 0 3.1 1.0 8 29
r 0.86112 2 3 tcp 1040 ------- 0 1.0 3.1 9 18
+ 0.86112 3 2 ack 40 ------- 0 3.1 1.0 9 30
- 0.86112 3 2 ack 40 ------- 0 3.1 1.0 9 30
r 0.86528 2 1 ack 40 ------- 0 3.1 1.0 8 29
+ 0.86528 1 2 tcp 1040 ------- 0 1.0 3.1 17 31
- 0.86528 1 2 tcp 1040 ------- 0 1.0 3.1 17 31
+ 0.86528 1 2 tcp 1040 ------- 0 1.0 3.1 18 32
- 0.86776 2 3 tcp 1040 ------- 0 1.0 3.1 11 21
- 0.86944 1 2 tcp 1040 ------- 0 1.0 3.1 18 32
r 0.87176 3 2 ack 40 ------- 0 3.1 1.0 9 30
+ 0.87176 2 1 ack 40 ------- 0 3.1 1.0 9 30
- 0.87176 2 1 ack 40 ------- 0 3.1 1.0 9 30
r 0.87776 2 3 tcp 1040 ------- 0 1.0 3.1 10 19
+ 0.87776 3 2 ack 40 ------- 0 3.1 1.0 10 33
- 0.87776 3 2 ack 40 ------- 0 3.1 1.0 10 33
r 0.87944 1 2 tcp 1040 ------- 0 1.0 3.1 17 31
+ 0.87944 2 3 tcp 1040 ------- 0 1.0 3.1 17 31
r 0.88192 2 1 ack 40 ------- 0 3.1 1.0 9 30
+ 0.88192 1 2 tcp 1040 ------- 0 1.0 3.1 19 34
- 0.88192 1 2 tcp 1040 ------- 0 1.0 3.1 19 34
+ 0.88192 1 2 tcp 1040 ------- 0 1.0 3.1 20 35
r 0.8836 1 2 tcp 1040 ------- 0 1.0 3.1 18 32
+ 0.8836 2 3 tcp 1040 ------- 0 1.0 3.1 18 32
- 0.8844 2 3 tcp 1040 ------- 0 1.0 3.1 12 22
- 0.88608 1 2 tcp 1040 ------- 0 1.0 3.1 20 35
r 0.8884 3 2 ack 40 ------- 0 3.1 1.0 10 33
+ 0.8884 2 1 ack 40 ------- 0 3.1 1.0 10 33
- 0.8884 2 1 ack 40 ------- 0 3.1 1.0 10 33
r 0.8944 2 3 tcp 1040 ------- 0 1.0 3.1 11 21
+ 0.8944 3 2 ack 40 ------- 0 3.1 1.0 11 36
- 0.8944 3 2 ack 40 ------- 0 3.1 1.0 11 36
r 0.89608 1 2 tcp 1040 ------- 0 1.0 3.1 19 34
+ 0.89608 2 3 tcp 1040 ------- 0 1.0 3.1 19 34
r 0.89856 2 1 ack 40 ------- 0 3.1 1.0 10 33
+ 0.89856 1 2 tcp 1040 ------- 0 1.0 3.1 21 37
- 0.89856 1 2 tcp 1040 ------- 0 1.0 3.1 21 37
+ 0.89856 1 2 tcp 1040 ------- 0 1.0 3.1 22 38
r 0.90024 1 2 tcp 1040 ------- 0 1.0 3.1 20 35
+ 0.90024 2 3 tcp 1040 ------- 0 1.0 3.1 20 35
- 0.90104 2 3 tcp 1040 ------- 0 1.0 3.1 13 24
- 0.90272 1 2 tcp 1040 ------- 0 1.0 3.1 22 38
r 0.90504 3 2 ack 40 ------- 0 3.1 1.0 11 36
+ 0.90504 2 1 ack 40 ------- 0 3.1 1.0 11 36
- 0.90504 2 1 ack 40 ------- 0 3.1 1.0 11 36
r 0.91104 2 3 tcp 1040 ------- 0 1.0 3.1 12 22
+ 0.91104 3 2 ack 40 ------- 0 3.1 1.0 12 39
- 0.91104 3 2 ack 40 ------- 0 3.1 1.0 12 39
r 0.91272 1 2 tcp 1040 ------- 0 1.0 3.1 21 37
+ 0.91272 2 3 tcp 1040 ------- 0 1.0 3.1 21 37
r 0.9152 2 1 ack 40 ------- 0 3.1 1.0 11 36
+ 0.9152 1 2 tcp 1040 ------- 0 1.0 3.1 23 40
- 0.9152 1 2 tcp 1040 ------- 0 1.0 3.1 23 40
+ 0.9152 1 2 tcp 1040 ------- 0 1.0 3.1 24 41
r 0.91688 1 2 tcp 1040 ------- 0 1.0 3.1 22 38
+ 0.91688 2 3 tcp 1040 ------- 0 1.0 3.1 22 38
- 0.91768 2 3 tcp 1040 ------- 0 1.0 3.1 14 25
- 0.91936 1 2 tcp 1040 ------- 0 1.0 3.1 24 41
r 0.92168 3 2 ack 40 ------- 0 3.1 1.0 12 39
+ 0.92168 2 1 ack 40 ------- 0 3.1 1.0 12 39
- 0.92168 2 1 ack 40 ------- 0 3.1 1.0 12 39
r 0.92768 2 3 tcp 1040 ------- 0 1.0 3.1 13 24
+ 0.92768 3 2 ack 40 ------- 0 3.1 1.0 13 42
- 0.92768 3 2 ack 40 ------- 0 3.1 1.0 13 42
r 0.92936 1 2 tcp 1040 ------- 0 1.0 3.1 23 40
+ 0.92936 2 3 tcp 1040 ------- 0 1.0 3.1 23 40
r 0.93184 2 1 ack 40 ------- 0 3.1 1.0 12 39
+ 0.93184 1 2 tcp 1040 ------- 0 1.0 3.1 25 43
- 0.93184 1 2 tcp 1040 ------- 0 1.0 3.1 25 43
+ 0.93184 1 2 tcp 1040 ------- 0 1.0 3.1 26 44
r 0.93352 1 2 tcp 1040 ------- 0 1.0 3.1 24 41
+ 0.93352 2 3 tcp 1040 ------- 0 1.0 3.1 24 41
- 0.93432 2 3 tcp 1040 ------- 0 1.0 3.1 15 27
- 0.936 1 2 tcp 1040 ------- 0 1.0 3.1 26 44
r 0.93832 3 2 ack 40 ------- 0 3.1 1.0 13 42
+ 0.93832 2 1 ack 40 ------- 0 3.1 1.0 13 42
- 0.93832 2 1 ack 40 ------- 0 3.1 1.0 13 42
r 0.94432 2 3 tcp 1040 ------- 0 1.0 3.1 14 25
+ 0.94432 3 2 ack 40 ------- 0 3.1 1.0 14 45
- 0.94432 3 2 ack 40 ------- 0 3.1 1.0 14 45
r 0.946 1 2 tcp 1040 ------- 0 1.0 3.1 25 43
+ 0.946 2 3 tcp 1040 ------- 0 1.0 3.1 25 43
r 0.94848 2 1 ack 40 ------- 0 3.1 1.0 13 42
+ 0.94848 1 2 tcp 1040 ------- 0 1.0 3.1 27 46
- 0.94848 1 2 tcp 1040 ------- 0 1.0 3.1 27 46
+ 0.94848 1 2 tcp 1040 ------- 0 1.0 3.1 28 47
r 0.95016 1 2 tcp 1040 ------- 0 1.0 3.1 26 44
+ 0.95016 2 3 tcp 1040 ------- 0 1.0 3.1 26 44
- 0.95096 2 3 tcp 1040 ------- 0 1.0 3.1 16 28
- 0.95264 1 2 tcp 1040 ------- 0 1.0 3.1 28 47
r 0.95496 3 2 ack 40 ------- 0 3.1 1.0 14 45
+ 0.95496 2 1 ack 40 ------- 0 3.1 1.0 14 45
- 0.95496 2 1 ack 40 ------- 0 3.1 1.0 14 45
r 0.96096 2 3 tcp 1040 ------- 0 1.0 3.1 15 27
+ 0.96096 3 2 ack 40 ------- 0 3.1 1.0 15 48
- 0.96096 3 2 ack 40 ------- 0 3.1 1.0 15 48
r 0.96264 1 2 tcp 1040 ------- 0 1.0 3.1 27 46
+ 0.96264 2 3 tcp 1040 ------- 0 1.0 3.1 27 46
r 0.96512 2 1 ack 40 ------- 0 3.1 1.0 14 45
+ 0.96512 1 2 tcp 1040 ------- 0 1.0 3.1 29 49
- 0.96512 1 2 tcp 1040 ------- 0 1.0 3.1 29 49
+ 0.96512 1 2 tcp 1040 ------- 0 1.0 3.1 30 50
r 0.9668 1 2 tcp 1040 ------- 0 1.0 3.1 28 47
+ 0.9668 2 3 tcp 1040 ------- 0 1.0 3.1 28 47
- 0.9676 2 3 tcp 1040 ------- 0 1.0 3.1 17 31
- 0.96928 1 2 tcp 1040 ------- 0 1.0 3.1 30 50
r 0.9716 3 2 ack 40 ------- 0 3.1 1.0 15 48
+ 0.9716 2 1 ack 40 ------- 0 3.1 1.0 15 48
- 0.9716 2 1 ack 40 ------- 0 3.1 1.0 15 48
r 0.9776 2 3 tcp 1040 ------- 0 1.0 3.1 16 28
+ 0.9776 3 2 ack 40 ------- 0 3.1 1.0 16 51
- 0.9776 3 2 ack 40 ------- 0 3.1 1.0 16 51
r 0.97928 1 2 tcp 1040 ------- 0 1.0 3.1 29 49
+ 0.97928 2 3 tcp 1040 ------- 0 1.0 3.1 29 49
r 0.98176 2 1 ack 40 ------- 0 3.1 1.0 15 48
+ 0.98176 1 2 tcp 1040 ------- 0 1.0 3.1 31 52
- 0.98176 1 2 tcp 1040 ------- 0 1.0 3.1 31 52
+ 0.98176 1 2 tcp 1040 ------- 0 1.0 3.1 32 53
r 0.98344 1 2 tcp 1040 ------- 0 1.0 3.1 30 50
+ 0.98344 2 3 tcp 1040 ------- 0 1.0 3.1 30 50
- 0.98424 2 3 tcp 1040 ------- 0 1.0 3.1 18 32
- 0.98592 1 2 tcp 1040 ------- 0 1.0 3.1 32 53
r 0.98824 3 2 ack 40 ------- 0 3.1 1.0 16 51
+ 0.98824 2 1 ack 40 ------- 0 3.1 1.0 16 51
- 0.98824 2 1 ack 40 ------- 0 3.1 1.0 16 51
r 0.99424 2 3 tcp 1040 ------- 0 1.0 3.1 17 31
+ 0.99424 3 2 ack 40 ------- 0 3.1 1.0 17 54
- 0.99424 3 2 ack 40 ------- 0 3.1 1.0 17 54
r 0.99592 1 2 tcp 1040 ------- 0 1.0 3.1 31 52
+ 0.99592 2 3 tcp 1040 ------- 0 1.0 3.1 31 52
r 0.9984 2 1 ack 40 ------- 0 3.1 1.0 16 51
+ 0.9984 1 2 tcp 1040 ------- 0 1.0 3.1 33 55
- 0.9984 1 2 tcp 1040 ------- 0 1.0 3.1 33 55
+ 0.9984 1 2 tcp 1040 ------- 0 1.0 3.1 34 56
r 1.00008 1 2 tcp 1040 ------- 0 1.0 3.1 32 53
+ 1.00008 2 3 tcp 1040 ------- 0 1.0 3.1 32 53
- 1.00088 2 3 tcp 1040 ------- 0 1.0 3.1 19 34
- 1.00256 1 2 tcp 1040 ------- 0 1.0 3.1 34 56
r 1.00488 3 2 ack 40 ------- 0 3.1 1.0 17 54
+ 1.00488 2 1 ack 40 ------- 0 3.1 1.0 17 54
- 1.00488 2 1 ack 40 ------- 0 3.1 1.0 17 54
r 1.01088 2 3 tcp 1040 ------- 0 1.0 3.1 18 32
+ 1.01088 3 2 ack 40 ------- 0 3.1 1.0 18 57
- 1.01088 3 2 ack 40 ------- 0 3.1 1.0 18 57
r 1.01256 1 2 tcp 1040 ------- 0 1.0 3.1 33 55
+ 1.01256 2 3 tcp 1040 ------- 0 1.0 3.1 33 55
r 1.01504 2 1 ack 40 ------- 0 3.1 1.0 17 54
+ 1.01504 1 2 tcp 1040 ------- 0 1.0 3.1 35 58
- 1.01504 1 2 tcp 1040 ------- 0 1.0 3.1 35 58
+ 1.01504 1 2 tcp 1040 ------- 0 1.0 3.1 36 59
r 1.01672 1 2 tcp 1040 ------- 0 1.0 3.1 34 56
+ 1.01672 2 3 tcp 1040 ------- 0 1.0 3.1 34 56
- 1.01752 2 3 tcp 1040 ------- 0 1.0 3.1 20 35
- 1.0192 1 2 tcp 1040 ------- 0 1.0 3.1 36 59
r 1.02152 3 2 ack 40 ------- 0 3.1 1.0 18 57
+ 1.02152 2 1 ack 40 ------- 0 3.1 1.0 18 57
- 1.02152 2 1 ack 40 ------- 0 3.1 1.0 18 57
r 1.02752 2 3 tcp 1040 ------- 0 1.0 3.1 19 34
+ 1.02752 3 2 ack 40 ------- 0 3.1 1.0 19 60
- 1.02752 3 2 ack 40 ------- 0 3.1 1.0 19 60
r 1.0292 1 2 tcp 1040 ------- 0 1.0 3.1 35 58
+ 1.0292 2 3 tcp 1040 ------- 0 1.0 3.1 35 58
r 1.03168 2 1 ack 40 ------- 0 3.1 1.0 18 57
+ 1.03168 1 2 tcp 1040 ------- 0 1.0 3.1 37 61
- 1.03168 1 2 tcp 1040 ------- 0 1.0 3.1 37 61
+ 1.03168 1 2 tcp 1040 ------- 0 1.0 3.1 38 62
r 1.03336 1 2 tcp 1040 ------- 0 1.0 3.1 36 59
+ 1.03336 2 3 tcp 1040 ------- 0 1.0 3.1 36 59
- 1.03416 2 3 tcp 1040 ------- 0 1.0 3.1 21 37
- 1.03584 1 2 tcp 1040 ------- 0 1.0 3.1 38 62
r 1.03816 3 2 ack 40 ------- 0 3.1 1.0 19 60
+ 1.03816 2 1 ack 40 ------- 0 3.1 1.0 19 60
- 1.03816 2 1 ack 40 ------- 0 3.1 1.0 19 60
r 1.04416 2 3 tcp 1040 ------- 0 1.0 3.1 20 35
+ 1.04416 3 2 ack 40 ------- 0 3.1 1.0 20 63
- 1.04416 3 2 ack 40 ------- 0 3.1 1.0 20 63
r 1.04584 1 2 tcp 1040 ------- 0 1.0 3.1 37 61
+ 1.04584 2 3 tcp 1040 ------- 0 1.0 3.1 37 61
r 1.04832 2 1 ack 40 ------- 0 3.1 1.0 19 60
+ 1.04832 1 2 tcp 1040 ------- 0 1.0 3.1 39 64
- 1.04832 1 2 tcp 1040 ------- 0 1.0 3.1 39 64
r 1.05 1 2 tcp 1040 ------- 0 1.0 3.1 38 62
+ 1.05 2 3 tcp 1040 ------- 0 1.0 3.1 38 62
- 1.0508 2 3 tcp 1040 ------- 0 1.0 3.1 22 38
r 1.0548 3 2 ack 40 ------- 0 3.1 1.0 20 63
+ 1.0548 2 1 ack 40 ------- 0 3.1 1.0 20 63
- 1.0548 2 1 ack 40 ------- 0 3.1 1.0 20 63
r 1.0608 2 3 tcp 1040 ------- 0 1.0 3.1 21 37
+ 1.0608 3 2 ack 40 ------- 0 3.1 1.0 21 65
- 1.0608 3 2 ack 40 ------- 0 3.1 1.0 21 65
r 1.06248 1 2 tcp 1040 ------- 0 1.0 3.1 39 64
+ 1.06248 2 3 tcp 1040 ------- 0 1.0 3.1 39 64
r 1.06496 2 1 ack 40 ------- 0 3.1 1.0 20 63
+ 1.06496 1 2 tcp 1040 ------- 0 1.0 3.1 40 66
- 1.06496 1 2 tcp 1040 ------- 0 1.0 3.1 40 66
- 1.06744 2 3 tcp 1040 ------- 0 1.0 3.1 23 40
r 1.07144 3 2 ack 40 ------- 0 3.1 1.0 21 65
+ 1.07144 2 1 ack 40 ------- 0 3.1 1.0 21 65
- 1.07144 2 1 ack 40 ------- 0 3.1 1.0 21 65
r 1.07744 2 3 tcp 1040 ------- 0 1.0 3.1 22 38
+ 1.07744 3 2 ack 40 ------- 0 3.1 1.0 22 67
- 1.07744 3 2 ack 40 ------- 0 3.1 1.0 22 67
r 1.07912 1 2 tcp 1040 ------- 0 1.0 3.1 40 66
+ 1.07912 2 3 tcp 1040 ------- 0 1.0 3.1 40 66
r 1.0816 2 1 ack 40 ------- 0 3.1 1.0 21 65
+ 1.0816 1 2 tcp 1040 ------- 0 1.0 3.1 41 68
- 1.0816 1 2 tcp 1040 ------- 0 1.0 3.1 41 68
- 1.08408 2 3 tcp 1040 ------- 0 1.0 3.1 24 41
r 1.08808 3 2 ack 40 ------- 0 3.1 1.0 22 67
+ 1.08808 2 1 ack 40 ------- 0 3.1 1.0 22 67
- 1.08808 2 1 ack 40 ------- 0 3.1 1.0 22 67
r 1.09408 2 3 tcp 1040 ------- 0 1.0 3.1 23 40
+ 1.09408 3 2 ack 40 ------- 0 3.1 1.0 23 69
- 1.09408 3 2 ack 40 ------- 0 3.1 1.0 23 69
r 1.09576 1 2 tcp 1040 ------- 0 1.0 3.1 41 68
+ 1.09576 2 3 tcp 1040 ------- 0 1.0 3.1 41 68
r 1.09824 2 1 ack 40 ------- 0 3.1 1.0 22 67
+ 1.09824 1 2 tcp 1040 ------- 0 1.0 3.1 42 70
- 1.09824 1 2 tcp 1040 ------- 0 1.0 3.1 42 70
- 1.10072 2 3 tcp 1040 ------- 0 1.0 3.1 25 43
r 1.10472 3 2 ack 40 ------- 0 3.1 1.0 23 69
+ 1.10472 2 1 ack 40 ------- 0 3.1 1.0 23 69
- 1.10472 2 1 ack 40 ------- 0 3.1 1.0 23 69
r 1.11072 2 3 tcp 1040 ------- 0 1.0 3.1 24 41
+ 1.11072 3 2 ack 40 ------- 0 3.1 1.0 24 71
- 1.11072 3 2 ack 40 ------- 0 3.1 1.0 24 71
r 1.1124 1 2 tcp 1040 ------- 0 1.0 3.1 42 70
+ 1.1124 2 3 tcp 1040 ------- 0 1.0 3.1 42 70
r 1.11488 2 1 ack 40 ------- 0 3.1 1.0 23 69
+ 1.11488 1 2 tcp 1040 ------- 0 1.0 3.1 43 72
- 1.11488 1 2 tcp 1040 ------- 0 1.0 3.1 43 72
- 1.11736 2 3 tcp 1040 ------- 0 1.0 3.1 26 44
r 1.12136 3 2 ack 40 ------- 0 3.1 1.0 24 71
+ 1.12136 2 1 ack 40 ------- 0 3.1 1.0 24 71
- 1.12136 2 1 ack 40 ------- 0 3.1 1.0 24 71
r 1.12736 2 3 tcp 1040 ------- 0 1.0 3.1 25 43
+ 1.12736 3 2 ack 40 ------- 0 3.1 1.0 25 73
- 1.12736 3 2 ack 40 ------- 0 3.1 1.0 25 73
r 1.12904 1 2 tcp 1040 ------- 0 1.0 3.1 43 72
+ 1.12904 2 3 tcp 1040 ------- 0 1.0 3.1 43 72
r 1.13152 2 1 ack 40 ------- 0 3.1 1.0 24 71
+ 1.13152 1 2 tcp 1040 ------- 0 1.0 3.1 44 74
- 1.13152 1 2 tcp 1040 ------- 0 1.0 3.1 44 74
- 1.134 2 3 tcp 1040 ------- 0 1.0 3.1 27 46
r 1.138 3 2 ack 40 ------- 0 3.1 1.0 25 73
+ 1.138 2 1 ack 40 ------- 0 3.1 1.0 25 73
- 1.138 2 1 ack 40 ------- 0 3.1 1.0 25 73
r 1.144 2 3 tcp 1040 ------- 0 1.0 3.1 26 44
+ 1.144 3 2 ack 40 ------- 0 3.1 1.0 26 75
- 1.144 3 2 ack 40 ------- 0 3.1 1.0 26 75
r 1.14568 1 2 tcp 1040 ------- 0 1.0 3.1 44 74
+ 1.14568 2 3 tcp 1040 ------- 0 1.0 3.1 44 74
r 1.14816 2 1 ack 40 ------- 0 3.1 1.0 25 73
+ 1.14816 1 2 tcp 1040 ------- 0 1.0 3.1 45 76
- 1.14816 1 2 tcp 1040 ------- 0 1.0 3.1 45 76
- 1.15064 2 3 tcp 1040 ------- 0 1.0 3.1 28 47
r 1.15464 3 2 ack 40 ------- 0 3.1 1.0 26 75
+ 1.15464 2 1 ack 40 ------- 0 3.1 1.0 26 75
- 1.15464 2 1 ack 40 ------- 0 3.1 1.0 26 75
r 1.16064 2 3 tcp 1040 ------- 0 1.0 3.1 27 46
+ 1.16064 3 2 ack 40 ------- 0 3.1 1.0 27 77
- 1.16064 3 2 ack 40 ------- 0 3.1 1.0 27 77
r 1.16232 1 2 tcp 1040 ------- 0 1.0 3.1 45 76
+ 1.16232 2 3 tcp 1040 ------- 0 1.0 3.1 45 76
r 1.1648 2 1 ack 40 ------- 0 3.1 1.0 26 75
+ 1.1648 1 2 tcp 1040 ------- 0 1.0 3.1 46 78
- 1.1648 1 2 tcp 1040 ------- 0 1.0 3.1 46 78
- 1.16728 2 3 tcp 1040 ------- 0 1.0 3.1 29 49
r 1.17128 3 2 ack 40 ------- 0 3.1 1.0 27 77
+ 1.17128 2 1 ack 40 ------- 0 3.1 1.0 27 77
- 1.17128 2 1 ack 40 ------- 0 3.1 1.0 27 77
r 1.17728 2 3 tcp 1040 ------- 0 1.0 3.1 28 47
+ 1.17728 3 2 ack 40 ------- 0 3.1 1.0 28 79
- 1.17728 3 2 ack 40 ------- 0 3.1 1.0 28 79
r 1.17896 1 2 tcp 1040 ------- 0 1.0 3.1 46 78
+ 1.17896 2 3 tcp 1040 ------- 0 1.0 3.1 46 78
r 1.18144 2 1 ack 40 ------- 0 3.1 1.0 27 77
+ 1.18144 1 2 tcp 1040 ------- 0 1.0 3.1 47 80
- 1.18144 1 2 tcp 1040 ------- 0 1.0 3.1 47 80
- 1.18392 2 3 tcp 1040 ------- 0 1.0 3.1 30 50
r 1.18792 3 2 ack 40 ------- 0 3.1 1.0 28 79
+ 1.18792 2 1 ack 40 ------- 0 3.1 1.0 28 79
- 1.18792 2 1 ack 40 ------- 0 3.1 1.0 28 79
r 1.19392 2 3 tcp 1040 ------- 0 1.0 3.1 29 49
+ 1.19392 3 2 ack 40 ------- 0 3.1 1.0 29 81
- 1.19392 3 2 ack 40 ------- 0 3.1 1.0 29 81
r 1.1956 1 2 tcp 1040 ------- 0 1.0 3.1 47 80
+ 1.1956 2 3 tcp 1040 ------- 0 1.0 3.1 47 80
r 1.19808 2 1 ack 40 ------- 0 3.1 1.0 28 79
+ 1.19808 1 2 tcp 1040 ------- 0 1.0 3.1 48 82
- 1.19808 1 2 tcp 1040 ------- 0 1.0 3.1 48 82
- 1.20056 2 3 tcp 1040 ------- 0 1.0 3.1 31 52
r 1.20456 3 2 ack 40 ------- 0 3.1 1.0 29 81
+ 1.20456 2 1 ack 40 ------- 0 3.1 1.0 29 81
- 1.20456 2 1 ack 40 ------- 0 3.1 1.0 29 81
r 1.21056 2 3 tcp 1040 ------- 0 1.0 3.1 30 50
+ 1.21056 3 2 ack 40 ------- 0 3.1 1.0 30 83
- 1.21056 3 2 ack 40 ------- 0 3.1 1.0 30 83
r 1.21224 1 2 tcp 1040 ------- 0 1.0 3.1 48 82
+ 1.21224 2 3 tcp 1040 ------- 0 1.0 3.1 48 82
r 1.21472 2 1 ack 40 ------- 0 3.1 1.0 29 81
+ 1.21472 1 2 tcp 1040 ------- 0 1.0 3.1 49 84
- 1.21472 1 2 tcp 1040 ------- 0 1.0 3.1 49 84
- 1.2172 2 3 tcp 1040 ------- 0 1.0 3.1 32 53
r 1.2212 3 2 ack 40 ------- 0 3.1 1.0 30 83
+ 1.2212 2 1 ack 40 ------- 0 3.1 1.0 30 83
- 1.2212 2 1 ack 40 ------- 0 3.1 1.0 30 83
r 1.2272 2 3 tcp 1040 ------- 0 1.0 3.1 31 52
+ 1.2272 3 2 ack 40 ------- 0 3.1 1.0 31 85
- 1.2272 3 2 ack 40 ------- 0 3.1 1.0 31 85
r 1.22888 1 2 tcp 1040 ------- 0 1.0 3.1 49 84
+ 1.22888 2 3 tcp 1040 ------- 0 1.0 3.1 49 84
r 1.23136 2 1 ack 40 ------- 0 3.1 1.0 30 83
+ 1.23136 1 2 tcp 1040 ------- 0 1.0 3.1 50 86
- 1.23136 1 2 tcp 1040 ------- 0 1.0 3.1 50 86
- 1.23384 2 3 tcp 1040 ------- 0 1.0 3.1 33 55
r 1.23784 3 2 ack 40 ------- 0 3.1 1.0 31 85
+ 1.23784 2 1 ack 40 ------- 0 3.1 1.0 31 85
- 1.23784 2 1 ack 40 ------- 0 3.1 1.0 31 85
r 1.24384 2 3 tcp 1040 ------- 0 1.0 3.1 32 53
+ 1.24384 3 2 ack 40 ------- 0 3.1 1.0 32 87
- 1.24384 3 2 ack 40 ------- 0 3.1 1.0 32 87
r 1.24552 1 2 tcp 1040 ------- 0 1.0 3.1 50 86
+ 1.24552 2 3 tcp 1040 ------- 0 1.0 3.1 50 86
r 1.248 2 1 ack 40 ------- 0 3.1 1.0 31 85
+ 1.248 1 2 tcp 1040 ------- 0 1.0 3.1 51 88
- 1.248 1 2 tcp 1040 ------- 0 1.0 3.1 51 88
- 1.25048 2 3 tcp 1040 ------- 0 1.0 3.1 34 56
r 1.25448 3 2 ack 40 ------- 0 3.1 1.0 32 87
+ 1.25448 2 1 ack 40 ------- 0 3.1 1.0 32 87
- 1.25448 2 1 ack 40 ------- 0 3.1 1.0 32 87
r 1.26048 2 3 tcp 1040 ------- 0 1.0 3.1 33 55
+ 1.26048 3 2 ack 40 ------- 0 3.1 1.0 33 89
- 1.26048 3 2 ack 40 ------- 0 3.1 1.0 33 89
r 1.26216 1 2 tcp 1040 ------- 0 1.0 3.1 51 88
+ 1.26216 2 3 tcp 1040 ------- 0 1.0 3.1 51 88
r 1.26464 2 1 ack 40 ------- 0 3.1 1.0 32 87
+ 1.26464 1 2 tcp 1040 ------- 0 1.0 3.1 52 90
- 1.26464 1 2 tcp 1040 ------- 0 1.0 3.1 52 90
- 1.26712 2 3 tcp 1040 ------- 0 1.0 3.1 35 58
r 1.27112 3 2 ack 40 ------- 0 3.1 1.0 33 89
+ 1.27112 2 1 ack 40 ------- 0 3.1 1.0 33 89
- 1.27112 2 1 ack 40 ------- 0 3.1 1.0 33 89
r 1.27712 2 3 tcp 1040 ------- 0 1.0 3.1 34 56
+ 1.27712 3 2 ack 40 ------- 0 3.1 1.0 34 91
- 1.27712 3 2 ack 40 ------- 0 3.1 1.0 34 91
r 1.2788 1 2 tcp 1040 ------- 0 1.0 3.1 52 90
+ 1.2788 2 3 tcp 1040 ------- 0 1.0 3.1 52 90
r 1.28128 2 1 ack 40 ------- 0 3.1 1.0 33 89
+ 1.28128 1 2 tcp 1040 ------- 0 1.0 3.1 53 92
- 1.28128 1 2 tcp 1040 ------- 0 1.0 3.1 53 92
- 1.28376 2 3 tcp 1040 ------- 0 1.0 3.1 36 59
r 1.28776 3 2 ack 40 ------- 0 3.1 1.0 34 91
+ 1.28776 2 1 ack 40 ------- 0 3.1 1.0 34 91
- 1.28776 2 1 ack 40 ------- 0 3.1 1.0 34 91
r 1.29376 2 3 tcp 1040 ------- 0 1.0 3.1 35 58
+ 1.29376 3 2 ack 40 ------- 0 3.1 1.0 35 93
- 1.29376 3 2 ack 40 ------- 0 3.1 1.0 35 93
r 1.29544 1 2 tcp 1040 ------- 0 1.0 3.1 53 92
+ 1.29544 2 3 tcp 1040 ------- 0 1.0 3.1 53 92
r 1.29792 2 1 ack 40 ------- 0 3.1 1.0 34 91
+ 1.29792 1 2 tcp 1040 ------- 0 1.0 3.1 54 94
- 1.29792 1 2 tcp 1040 ------- 0 1.0 3.1 54 94
- 1.3004 2 3 tcp 1040 ------- 0 1.0 3.1 37 61
r 1.3044 3 2 ack 40 ------- 0 3.1 1.0 35 93
+ 1.3044 2 1 ack 40 ------- 0 3.1 1.0 35 93
- 1.3044 2 1 ack 40 ------- 0 3.1 1.0 35 93
r 1.3104 2 3 tcp 1040 ------- 0 1.0 3.1 36 59
+ 1.3104 3 2 ack 40 ------- 0 3.1 1.0 36 95
- 1.3104 3 2 ack 40 ------- 0 3.1 1.0 36 95
r 1.31208 1 2 tcp 1040 ------- 0 1.0 3.1 54 94
+ 1.31208 2 3 tcp 1040 ------- 0 1.0 3.1 54 94
r 1.31456 2 1 ack 40 ------- 0 3.1 1.0 35 93
+ 1.31456 1 2 tcp 1040 ------- 0 1.0 3.1 55 96
- 1.31456 1 2 tcp 1040 ------- 0 1.0 3.1 55 96
- 1.31704 2 3 tcp 1040 ------- 0 1.0 3.1 38 62
r 1.32104 3 2 ack 40 ------- 0 3.1 1.0 36 95
+ 1.32104 2 1 ack 40 ------- 0 3.1 1.0 36 95
- 1.32104 2 1 ack 40 ------- 0 3.1 1.0 36 95
r 1.32704 2 3 tcp 1040 ------- 0 1.0 3.1 37 61
+ 1.32704 3 2 ack 40 ------- 0 3.1 1.0 37 97
- 1.32704 3 2 ack 40 ------- 0 3.1 1.0 37 97
r 1.32872 1 2 tcp 1040 ------- 0 1.0 3.1 55 96
+ 1.32872 2 3 tcp 1040 ------- 0 1.0 3.1 55 96
r 1.3312 2 1 ack 40 ------- 0 3.1 1.0 36 95
+ 1.3312 1 2 tcp 1040 ------- 0 1.0 3.1 56 98
- 1.3312 1 2 tcp 1040 ------- 0 1.0 3.1 56 98
- 1.33368 2 3 tcp 1040 ------- 0 1.0 3.1 39 64
r 1.33768 3 2 ack 40 ------- 0 3.1 1.0 37 97
+ 1.33768 2 1 ack 40 ------- 0 3.1 1.0 37 97
- 1.33768 2 1 ack 40 ------- 0 3.1 1.0 37 97
r 1.34368 2 3 tcp 1040 ------- 0 1.0 3.1 38 62
+ 1.34368 3 2 ack 40 ------- 0 3.1 1.0 38 99
- 1.34368 3 2 ack 40 ------- 0 3.1 1.0 38 99
r 1.34536 1 2 tcp 1040 ------- 0 1.0 3.1 56 98
+ 1.34536 2 3 tcp 1040 ------- 0 1.0 3.1 56 98
r 1.34784 2 1 ack 40 ------- 0 3.1 1.0 37 97
+ 1.34784 1 2 tcp 1040 ------- 0 1.0 3.1 57 100
- 1.34784 1 2 tcp 1040 ------- 0 1.0 3.1 57 100
- 1.35032 2 3 tcp 1040 ------- 0 1.0 3.1 40 66
r 1.35432 3 2 ack 40 ------- 0 3.1 1.0 38 99
+ 1.35432 2 1 ack 40 ------- 0 3.1 1.0 38 99
- 1.35432 2 1 ack 40 ------- 0 3.1 1.0 38 99
r 1.36032 2 3 tcp 1040 ------- 0 1.0 3.1 39 64
+ 1.36032 3 2 ack 40 ------- 0 3.1 1.0 39 101
- 1.36032 3 2 ack 40 ------- 0 3.1 1.0 39 101
r 1.362 1 2 tcp 1040 ------- 0 1.0 3.1 57 100
+ 1.362 2 3 tcp 1040 ------- 0 1.0 3.1 57 100
r 1.36448 2 1 ack 40 ------- 0 3.1 1.0 38 99
+ 1.36448 1 2 tcp 1040 ------- 0 1.0 3.1 58 102
- 1.36448 1 2 tcp 1040 ------- 0 1.0 3.1 58 102
- 1.36696 2 3 tcp 1040 ------- 0 1.0 3.1 41 68
r 1.37096 3 2 ack 40 ------- 0 3.1 1.0 39 101
+ 1.37096 2 1 ack 40 ------- 0 3.1 1.0 39 101
- 1.37096 2 1 ack 40 ------- 0 3.1 1.0 39 101
r 1.37696 2 3 tcp 1040 ------- 0 1.0 3.1 40 66
+ 1.37696 3 2 ack 40 ------- 0 3.1 1.0 40 103
- 1.37696 3 2 ack 40 ------- 0 3.1 1.0 40 103
r 1.37864 1 2 tcp 1040 ------- 0 1.0 3.1 58 102
+ 1.37864 2 3 tcp 1040 ------- 0 1.0 3.1 58 102
r 1.38112 2 1 ack 40 ------- 0 3.1 1.0 39 101
+ 1.38112 1 2 tcp 1040 ------- 0 1.0 3.1 59 104
- 1.38112 1 2 tcp 1040 ------- 0 1.0 3.1 59 104
- 1.3836 2 3 tcp 1040 ------- 0 1.0 3.1 42 70
r 1.3876 3 2 ack 40 ------- 0 3.1 1.0 40 103
+ 1.3876 2 1 ack 40 ------- 0 3.1 1.0 40 103
- 1.3876 2 1 ack 40 ------- 0 3.1 1.0 40 103
r 1.3936 2 3 tcp 1040 ------- 0 1.0 3.1 41 68
+ 1.3936 3 2 ack 40 ------- 0 3.1 1.0 41 105
- 1.3936 3 2 ack 40 ------- 0 3.1 1.0 41 105
r 1.39528 1 2 tcp 1040 ------- 0 1.0 3.1 59 104
+ 1.39528 2 3 tcp 1040 ------- 0 1.0 3.1 59 104
r 1.39776 2 1 ack 40 ------- 0 3.1 1.0 40 103
+ 1.39776 1 2 tcp 1040 ------- 0 1.0 3.1 60 106
- 1.39776 1 2 tcp 1040 ------- 0 1.0 3.1 60 106
- 1.40024 2 3 tcp 1040 ------- 0 1.0 3.1 43 72
r 1.40424 3 2 ack 40 ------- 0 3.1 1.0 41 105
+ 1.40424 2 1 ack 40 ------- 0 3.1 1.0 41 105
- 1.40424 2 1 ack 40 ------- 0 3.1 1.0 41 105
r 1.41024 2 3 tcp 1040 ------- 0 1.0 3.1 42 70
+ 1.41024 3 2 ack 40 ------- 0 3.1 1.0 42 107
- 1.41024 3 2 ack 40 ------- 0 3.1 1.0 42 107
r 1.41192 1 2 tcp 1040 ------- 0 1.0 3.1 60 106
+ 1.41192 2 3 tcp 1040 ------- 0 1.0 3.1 60 106
r 1.4144 2 1 ack 40 ------- 0 3.1 1.0 41 105
+ 1.4144 1 2 tcp 1040 ------- 0 1.0 3.1 61 108
- 1.4144 1 2 tcp 1040 ------- 0 1.0 3.1 61 108
- 1.41688 2 3 tcp 1040 ------- 0 1.0 3.1 44 74
r 1.42088 3 2 ack 40 ------- 0 3.1 1.0 42 107
+ 1.42088 2 1 ack 40 ------- 0 3.1 1.0 42 107
- 1.42088 2 1 ack 40 ------- 0 3.1 1.0 42 107
r 1.42688 2 3 tcp 1040 ------- 0 1.0 3.1 43 72
+ 1.42688 3 2 ack 40 ------- 0 3.1 1.0 43 109
- 1.42688 3 2 ack 40 ------- 0 3.1 1.0 43 109
r 1.42856 1 2 tcp 1040 ------- 0 1.0 3.1 61 108
+ 1.42856 2 3 tcp 1040 ------- 0 1.0 3.1 61 108
r 1.43104 2 1 ack 40 ------- 0 3.1 1.0 42 107
+ 1.43104 1 2 tcp 1040 ------- 0 1.0 3.1 62 110
- 1.43104 1 2 tcp 1040 ------- 0 1.0 3.1 62 110
+ 1.431391 0 2 tcp 1040 ---A--- 0 0.0 3.0 2 111
- 1.431391 0 2 tcp 1040 ---A--- 0 0.0 3.0 2 111
- 1.43352 2 3 tcp 1040 ------- 0 1.0 3.1 45 76
r 1.43752 3 2 ack 40 ------- 0 3.1 1.0 43 109
+ 1.43752 2 1 ack 40 ------- 0 3.1 1.0 43 109
- 1.43752 2 1 ack 40 ------- 0 3.1 1.0 43 109
r 1.44352 2 3 tcp 1040 ------- 0 1.0 3.1 44 74
+ 1.44352 3 2 ack 40 ------- 0 3.1 1.0 44 112
- 1.44352 3 2 ack 40 ------- 0 3.1 1.0 44 112
r 1.4452 1 2 tcp 1040 ------- 0 1.0 3.1 62 110
+ 1.4452 2 3 tcp 1040 ------- 0 1.0 3.1 62 110
r 1.445551 0 2 tcp 1040 ---A--- 0 0.0 3.0 2 111
+ 1.445551 2 3 tcp 1040 ---A--- 0 0.0 3.0 2 111
r 1.44768 2 1 ack 40 ------- 0 3.1 1.0 43 109
+ 1.44768 1 2 tcp 1040 ------- 0 1.0 3.1 63 113
- 1.44768 1 2 tcp 1040 ------- 0 1.0 3.1 63 113
- 1.45016 2 3 tcp 1040 ------- 0 1.0 3.1 46 78
r 1.45416 3 2 ack 40 ------- 0 3.1 1.0 44 112
+ 1.45416 2 1 ack 40 ------- 0 3.1 1.0 44 112
- 1.45416 2 1 ack 40 ------- 0 3.1 1.0 44 112
r 1.46016 2 3 tcp 1040 ------- 0 1.0 3.1 45 76
+ 1.46016 3 2 ack 40 ------- 0 3.1 1.0 45 114
- 1.46016 3 2 ack 40 ------- 0 3.1 1.0 45 114
r 1.46184 1 2 tcp 1040 ------- 0 1.0 3.1 63 113
+ 1.46184 2 3 tcp 1040 ------- 0 1.0 3.1 63 113
r 1.46432 2 1 ack 40 ------- 0 3.1 1.0 44 112
+ 1.46432 1 2 tcp 1040 ------- 0 1.0 3.1 64 115
- 1.46432 1 2 tcp 1040 ------- 0 1.0 3.1 64 115
- 1.4668 2 3 tcp 1040 ------- 0 1.0 3.1 47 80
r 1.4708 3 2 ack 40 ------- 0 3.1 1.0 45 114
+ 1.4708 2 1 ack 40 ------- 0 3.1 1.0 45 114
- 1.4708 2 1 ack 40 ------- 0 3.1 1.0 45 114
r 1.4768 2 3 tcp 1040 ------- 0 1.0 3.1 46 78
+ 1.4768 3 2 ack 40 ------- 0 3.1 1.0 46 116