V -t * -v 1.0a5 -a 0
A -t * -n 1 -p 0 -o 0x7fffffff -c 30 -a 1
A -t * -h 1 -m 1073741823 -s 0
c -t * -i 2 -n red
n -t * -a 0 -s 0 -S UP -v hexagon -c red -i red
n -t * -a 1 -s 1 -S UP -v circle -c black -i black
n -t * -a 2 -s 2 -S UP -v square -c blue -i blue
l -t * -s 0 -d 1 -S UP -r 100000 -D 0.02 -c black
l -t * -s 1 -d 2 -S UP -r 200000 -D 0.02 -c black
+ -t 0.2 -s 0 -d 1 -p cbr -e 512 -c 2 -i 0 -a 2 -x {0.0 2.0 0 ------- null}
- -t 0.2 -s 0 -d 1 -p cbr -e 512 -c 2 -i 0 -a 2 -x {0.0 2.0 0 ------- null}
h -t 0.2 -s 0 -d 1 -p cbr -e 512 -c 2 -i 0 -a 2 -x {0.0 2.0 -1 ------- null}
+ -t 0.205 -s 0 -d 1 -p cbr -e 512 -c 2 -i 1 -a 2 -x {0.0 2.0 1 ------- null}
+ -t 0.21 -s 0 -d 1 -p cbr -e 512 -c 2 -i 2 -a 2 -x {0.0 2.0 2 ------- null}
+ -t 0.215 -s 0 -d 1 -p cbr -e 512 -c 2 -i 3 -a 2 -x {0.0 2.0 3 ------- null}
+ -t 0.22 -s 0 -d 1 -p cbr -e 512 -c 2 -i 4 -a 2 -x {0.0 2.0 4 ------- null}
+ -t 0.225 -s 0 -d 1 -p cbr -e 512 -c 2 -i 5 -a 2 -x {0.0 2.0 5 ------- null}
+ -t 0.23 -s 0 -d 1 -p cbr -e 512 -c 2 -i 6 -a 2 -x {0.0 2.0 6 ------- null}
+ -t 0.235 -s 0 -d 1 -p cbr -e 512 -c 2 -i 7 -a 2 -x {0.0 2.0 7 ------- null}
+ -t 0.24 -s 0 -d 1 -p cbr -e 512 -c 2 -i 8 -a 2 -x {0.0 2.0 8 ------- null}
- -t 0.24096 -s 0 -d 1 -p cbr -e 512 -c 2 -i 1 -a 2 -x {0.0 2.0 1 ------- null}
h -t 0.24096 -s 0 -d 1 -p cbr -e 512 -c 2 -i 1 -a 2 -x {0.0 2.0 -1 ------- null}
+ -t 0.245 -s 0 -d 1 -p cbr -e 512 -c 2 -i 9 -a 2 -x {0.0 2.0 9 ------- null}
+ -t 0.25 -s 0 -d 1 -p cbr -e 512 -c 2 -i 10 -a 2 -x {0.0 2.0 10 ------- null}
+ -t 0.255 -s 0 -d 1 -p cbr -e 512 -c 2 -i 11 -a 2 -x {0.0 2.0 11 ------- null}
d -t 0.255 -s 0 -d 1 -p cbr -e 512 -c 2 -i 11 -a 2 -x {0.0 2.0 11 ------- null}
+ -t 0.26 -s 0 -d 1 -p cbr -e 512 -c 2 -i 12 -a 2 -x {0.0 2.0 12 ------- null}
d -t 0.26 -s 0 -d 1 -p cbr -e 512 -c 2 -i 12 -a 2 -x {0.0 2.0 12 ------- null}
r -t 0.26096 -s 0 -d 1 -p cbr -e 512 -c 2 -i 0 -a 2 -x {0.0 2.0 0 ------- null}
+ -t 0.26096 -s 1 -d 2 -p cbr -e 512 -c 2 -i 0 -a 2 -x {0.0 2.0 0 ------- null}
- -t 0.26096 -s 1 -d 2 -p cbr -e 512 -c 2 -i 0 -a 2 -x {0.0 2.0 0 ------- null}
h -t 0.26096 -s 1 -d 2 -p cbr -e 512 -c 2 -i 0 -a 2 -x {0.0 2.0 -1 ------- null}
+ -t 0.265 -s 0 -d 1 -p cbr -e 512 -c 2 -i 13 -a 2 -x {0.0 2.0 13 ------- null}
d -t 0.265 -s 0 -d 1 -p cbr -e 512 -c 2 -i 13 -a 2 -x {0.0 2.0 13 ------- null}
+ -t 0.27 -s 0 -d 1 -p cbr -e 512 -c 2 -i 14 -a 2 -x {0.0 2.0 14 ------- null}
d -t 0.27 -s 0 -d 1 -p cbr -e 512 -c 2 -i 14 -a 2 -x {0.0 2.0 14 ------- null}
+ -t 0.275 -s 0 -d 1 -p cbr -e 512 -c 2 -i 15 -a 2 -x {0.0 2.0 15 ------- null}
d -t 0.275 -s 0 -d 1 -p cbr -e 512 -c 2 -i 15 -a 2 -x {0.0 2.0 15 ------- null}
+ -t 0.28 -s 0 -d 1 -p cbr -e 512 -c 2 -i 16 -a 2 -x {0.0 2.0 16 ------- null}
d -t 0.28 -s 0 -d 1 -p cbr -e 512 -c 2 -i 16 -a 2 -x {0.0 2.0 16 ------- null}
- -t 0.28192 -s 0 -d 1 -p cbr -e 512 -c 2 -i 2 -a 2 -x {0.0 2.0 2 ------- null}
h -t 0.28192 -s 0 -d 1 -p cbr -e 512 -c 2 -i 2 -a 2 -x {0.0 2.0 -1 ------- null}
+ -t 0.285 -s 0 -d 1 -p cbr -e 512 -c 2 -i 17 -a 2 -x {0.0 2.0 17 ------- null}
+ -t 0.29 -s 0 -d 1 -p cbr -e 512 -c 2 -i 18 -a 2 -x {0.0 2.0 18 ------- null}
d -t 0.29 -s 0 -d 1 -p cbr -e 512 -c 2 -i 18 -a 2 -x {0.0 2.0 18 ------- null}
+ -t 0.295 -s 0 -d 1 -p cbr -e 512 -c 2 -i 19 -a 2 -x {0.0 2.0 19 ------- null}
d -t 0.295 -s 0 -d 1 -p cbr -e 512 -c 2 -i 19 -a 2 -x {0.0 2.0 19 ------- null}
+ -t 0.3 -s 0 -d 1 -p cbr -e 512 -c 2 -i 20 -a 2 -x {0.0 2.0 20 ------- null}
d -t 0.3 -s 0 -d 1 -p cbr -e 512 -c 2 -i 20 -a 2 -x {0.0 2.0 20 ------- null}
r -t 0.30144 -s 1 -d 2 -p cbr -e 512 -c 2 -i 0 -a 2 -x {0.0 2.0 0 ------- null}
r -t 0.30192 -s 0 -d 1 -p cbr -e 512 -c 2 -i 1 -a 2 -x {0.0 2.0 1 ------- null}
+ -t 0.30192 -s 1 -d 2 -p cbr -e 512 -c 2 -i 1 -a 2 -x {0.0 2.0 1 ------- null}
- -t 0.30192 -s 1 -d 2 -p cbr -e 512 -c 2 -i 1 -a 2 -x {0.0 2.0 1 ------- null}
h -t 0.30192 -s 1 -d 2 -p cbr -e 512 -c 2 -i 1 -a 2 -x {0.0 2.0 -1 ------- null}
+ -t 0.305 -s 0 -d 1 -p cbr -e 512 -c 2 -i 21 -a 2 -x {0.0 2.0 21 ------- null}
d -t 0.305 -s 0 -d 1 -p cbr -e 512 -c 2 -i 21 -a 2 -x {0.0 2.0 21 ------- null}
+ -t 0.31 -s 0 -d 1 -p cbr -e 512 -c 2 -i 22 -a 2 -x {0.0 2.0 22 ------- null}
d -t 0.31 -s 0 -d 1 -p cbr -e 512 -c 2 -i 22 -a 2 -x {0.0 2.0 22 ------- null}
+ -t 0.315 -s 0 -d 1 -p cbr -e 512 -c 2 -i 23 -a 2 -x {0.0 2.0 23 ------- null}
d -t 0.315 -s 0 -d 1 -p cbr -e 512 -c 2 -i 23 -a 2 -x {0.0 2.0 23 ------- null}
+ -t 0.32 -s 0 -d 1 -p cbr -e 512 -c 2 -i 24 -a 2 -x {0.0 2.0 24 ------- null}
d -t 0.32 -s 0 -d 1 -p cbr -e 512 -c 2 -i 24 -a 2 -x {0.0 2.0 24 ------- null}
- -t 0.32288 -s 0 -d 1 -p cbr -e 512 -c 2 -i 3 -a 2 -x {0.0 2.0 3 ------- null}
h -t 0.32288 -s 0 -d 1 -p cbr -e 512 -c 2 -i 3 -a 2 -x {0.0 2.0 -1 ------- null}
+ -t 0.325 -s 0 -d 1 -p cbr -e 512 -c 2 -i 25 -a 2 -x {0.0 2.0 25 ------- null}
+ -t 0.33 -s 0 -d 1 -p cbr -e 512 -c 2 -i 26 -a 2 -x {0.0 2.0 26 ------- null}
d -t 0.33 -s 0 -d 1 -p cbr -e 512 -c 2 -i 26 -a 2 -x {0.0 2.0 26 ------- null}
+ -t 0.335 -s 0 -d 1 -p cbr -e 512 -c 2 -i 27 -a 2 -x {0.0 2.0 27 ------- null}
d -t 0.335 -s 0 -d 1 -p cbr -e 512 -c 2 -i 27 -a 2 -x {0.0 2.0 27 ------- null}
+ -t 0.34 -s 0 -d 1 -p cbr -e 512 -c 2 -i 28 -a 2 -x {0.0 2.0 28 ------- null}
d -t 0.34 -s 0 -d 1 -p cbr -e 512 -c 2 -i 28 -a 2 -x {0.0 2.0 28 ------- null}
r -t 0.3424 -s 1 -d 2 -p cbr -e 512 -c 2 -i 1 -a 2 -x {0.0 2.0 1 ------- null}
r -t 0.34288 -s 0 -d 1 -p cbr -e 512 -c 2 -i 2 -a 2 -x {0.0 2.0 2 ------- null}
+ -t 0.34288 -s 1 -d 2 -p cbr -e 512 -c 2 -i 2 -a 2 -x {0.0 2.0 2 ------- null}
- -t 0.34288 -s 1 -d 2 -p cbr -e 512 -c 2 -i 2 -a 2 -x {0.0 2.0 2 ------- null}
h -t 0.34288 -s 1 -d 2 -p cbr -e 512 -c 2 -i 2 -a 2 -x {0.0 2.0 -1 ------- null}
+ -t 0.345 -s 0 -d 1 -p cbr -e 512 -c 2 -i 29 -a 2 -x {0.0 2.0 29 ------- null}
d -t 0.345 -s 0 -d 1 -p cbr -e 512 -c 2 -i 29 -a 2 -x {0.0 2.0 29 ------- null}
+ -t 0.35 -s 0 -d 1 -p cbr -e 512 -c 2 -i 30 -a 2 -x {0.0 2.0 30 ------- null}
d -t 0.35 -s 0 -d 1 -p cbr -e 512 -c 2 -i 30 -a 2 -x {0.0 2.0 30 ------- null}
+ -t 0.355 -s 0 -d 1 -p cbr -e 512 -c 2 -i 31 -a 2 -x {0.0 2.0 31 ------- null}
d -t 0.355 -s 0 -d 1 -p cbr -e 512 -c 2 -i 31 -a 2 -x {0.0 2.0 31 ------- null}
+ -t 0.36 -s 0 -d 1 -p cbr -e 512 -c 2 -i 32 -a 2 -x {0.0 2.0 32 ------- null}
d -t 0.36 -s 0 -d 1 -p cbr -e 512 -c 2 -i 32 -a 2 -x {0.0 2.0 32 ------- null}
- -t 0.36384 -s 0 -d 1 -p cbr -e 512 -c 2 -i 4 -a 2 -x {0.0 2.0 4 ------- null}
h -t 0.36384 -s 0 -d 1 -p cbr -e 512 -c 2 -i 4 -a 2 -x {0.0 2.0 -1 ------- null}
+ -t 0.365 -s 0 -d 1 -p cbr -e 512 -c 2 -i 33 -a 2 -x {0.0 2.0 33 ------- null}
+ -t 0.37 -s 0 -d 1 -p cbr -e 512 -c 2 -i 34 -a 2 -x {0.0 2.0 34 ------- null}
d -t 0.37 -s 0 -d 1 -p cbr -e 512 -c 2 -i 34 -a 2 -x {0.0 2.0 34 ------- null}
+ -t 0.375 -s 0 -d 1 -p cbr -e 512 -c 2 -i 35 -a 2 -x {0.0 2.0 35 ------- null}
d -t 0.375 -s 0 -d 1 -p cbr -e 512 -c 2 -i 35 -a 2 -x {0.0 2.0 35 ------- null}
+ -t 0.38 -s 0 -d 1 -p cbr -e 512 -c 2 -i 36 -a 2 -x {0.0 2.0 36 ------- null}
d -t 0.38 -s 0 -d 1 -p cbr -e 512 -c 2 -i 36 -a 2 -x {0.0 2.0 36 ------- null}
r -t 0.38336 -s 1 -d 2 -p cbr -e 512 -c 2 -i 2 -a 2 -x {0.0 2.0 2 ------- null}
r -t 0.38384 -s 0 -d 1 -p cbr -e 512 -c 2 -i 3 -a 2 -x {0.0 2.0 3 ------- null}
+ -t 0.38384 -s 1 -d 2 -p cbr -e 512 -c 2 -i 3 -a 2 -x {0.0 2.0 3 ------- null}
- -t 0.38384 -s 1 -d 2 -p cbr -e 512 -c 2 -i 3 -a 2 -x {0.0 2.0 3 ------- null}
h -t 0.38384 -s 1 -d 2 -p cbr -e 512 -c 2 -i 3 -a 2 -x {0.0 2.0 -1 ------- null}
+ -t 0.385 -s 0 -d 1 -p cbr -e 512 -c 2 -i 37 -a 2 -x {0.0 2.0 37 ------- null}
d -t 0.385 -s 0 -d 1 -p cbr -e 512 -c 2 -i 37 -a 2 -x {0.0 2.0 37 ------- null}
+ -t 0.39 -s 0 -d 1 -p cbr -e 512 -c 2 -i 38 -a 2 -x {0.0 2.0 38 ------- null}
d -t 0.39 -s 0 -d 1 -p cbr -e 512 -c 2 -i 38 -a 2 -x {0.0 2.0 38 ------- null}
+ -t 0.395 -s 0 -d 1 -p cbr -e 512 -c 2 -i 39 -a 2 -x {0.0 2.0 39 ------- null}
d -t 0.395 -s 0 -d 1 -p cbr -e 512 -c 2 -i 39 -a 2 -x {0.0 2.0 39 ------- null}
+ -t 0.4 -s 0 -d 1 -p cbr -e 512 -c 2 -i 40 -a 2 -x {0.0 2.0 40 ------- null}
d -t 0.4 -s 0 -d 1 -p cbr -e 512 -c 2 -i 40 -a 2 -x {0.0 2.0 40 ------- null}
- -t 0.4048 -s 0 -d 1 -p cbr -e 512 -c 2 -i 5 -a 2 -x {0.0 2.0 5 ------- null}
h -t 0.4048 -s 0 -d 1 -p cbr -e 512 -c 2 -i 5 -a 2 -x {0.0 2.0 -1 ------- null}
+ -t 0.405 -s 0 -d 1 -p cbr -e 512 -c 2 -i 41 -a 2 -x {0.0 2.0 41 ------- null}
+ -t 0.41 -s 0 -d 1 -p cbr -e 512 -c 2 -i 42 -a 2 -x {0.0 2.0 42 ------- null}
d -t 0.41 -s 0 -d 1 -p cbr -e 512 -c 2 -i 42 -a 2 -x {0.0 2.0 42 ------- null}
+ -t 0.415 -s 0 -d 1 -p cbr -e 512 -c 2 -i 43 -a 2 -x {0.0 2.0 43 ------- null}
d -t 0.415 -s 0 -d 1 -p cbr -e 512 -c 2 -i 43 -a 2 -x {0.0 2.0 43 ------- null}
+ -t 0.42 -s 0 -d 1 -p cbr -e 512 -c 2 -i 44 -a 2 -x {0.0 2.0 44 ------- null}
d -t 0.42 -s 0 -d 1 -p cbr -e 512 -c 2 -i 44 -a 2 -x {0.0 2.0 44 ------- null}
r -t 0.42432 -s 1 -d 2 -p cbr -e 512 -c 2 -i 3 -a 2 -x {0.0 2.0 3 ------- null}
r -t 0.4248 -s 0 -d 1 -p cbr -e 512 -c 2 -i 4 -a 2 -x {0.0 2.0 4 ------- null}
+ -t 0.4248 -s 1 -d 2 -p cbr -e 512 -c 2 -i 4 -a 2 -x {0.0 2.0 4 ------- null}
- -t 0.4248 -s 1 -d 2 -p cbr -e 512 -c 2 -i 4 -a 2 -x {0.0 2.0 4 ------- null}
h -t 0.4248 -s 1 -d 2 -p cbr -e 512 -c 2 -i 4 -a 2 -x {0.0 2.0 -1 ------- null}
+ -t 0.425 -s 0 -d 1 -p cbr -e 512 -c 2 -i 45 -a 2 -x {0.0 2.0 45 ------- null}
d -t 0.425 -s 0 -d 1 -p cbr -e 512 -c 2 -i 45 -a 2 -x {0.0 2.0 45 ------- null}
+ -t 0.43 -s 0 -d 1 -p cbr -e 512 -c 2 -i 46 -a 2 -x {0.0 2.0 46 ------- null}
d -t 0.43 -s 0 -d 1 -p cbr -e 512 -c 2 -i 46 -a 2 -x {0.0 2.0 46 ------- null}
+ -t 0.435 -s 0 -d 1 -p cbr -e 512 -c 2 -i 47 -a 2 -x {0.0 2.0 47 ------- null}
d -t 0.435 -s 0 -d 1 -p cbr -e 512 -c 2 -i 47 -a 2 -x {0.0 2.0 47 ------- null}
+ -t 0.44 -s 0 -d 1 -p cbr -e 512 -c 2 -i 48 -a 2 -x {0.0 2.0 48 ------- null}
d -t 0.44 -s 0 -d 1 -p cbr -e 512 -c 2 -i 48 -a 2 -x {0.0 2.0 48 ------- null}
+ -t 0.445 -s 0 -d 1 -p cbr -e 512 -c 2 -i 49 -a 2 -x {0.0 2.0 49 ------- null}
d -t 0.445 -s 0 -d 1 -p cbr -e 512 -c 2 -i 49 -a 2 -x {0.0 2.0 49 ------- null}
- -t 0.44576 -s 0 -d 1 -p cbr -e 512 -c 2 -i 6 -a 2 -x {0.0 2.0 6 ------- null}
h -t 0.44576 -s 0 -d 1 -p cbr -e 512 -c 2 -i 6 -a 2 -x {0.0 2.0 -1 ------- null}
+ -t 0.45 -s 0 -d 1 -p cbr -e 512 -c 2 -i 50 -a 2 -x {0.0 2.0 50 ------- null}
+ -t 0.455 -s 0 -d 1 -p cbr -e 512 -c 2 -i 51 -a 2 -x {0.0 2.0 51 ------- null}
d -t 0.455 -s 0 -d 1 -p cbr -e 512 -c 2 -i 51 -a 2 -x {0.0 2.0 51 ------- null}
+ -t 0.46 -s 0 -d 1 -p cbr -e 512 -c 2 -i 52 -a 2 -x {0.0 2.0 52 ------- null}
d -t 0.46 -s 0 -d 1 -p cbr -e 512 -c 2 -i 52 -a 2 -x {0.0 2.0 52 ------- null}
+ -t 0.465 -s 0 -d 1 -p cbr -e 512 -c 2 -i 53 -a 2 -x {0.0 2.0 53 ------- null}
d -t 0.465 -s 0 -d 1 -p cbr -e 512 -c 2 -i 53 -a 2 -x {0.0 2.0 53 ------- null}
r -t 0.46528 -s 1 -d 2 -p cbr -e 512 -c 2 -i 4 -a 2 -x {0.0 2.0 4 ------- null}
r -t 0.46576 -s 0 -d 1 -p cbr -e 512 -c 2 -i 5 -a 2 -x {0.0 2.0 5 ------- null}
+ -t 0.46576 -s 1 -d 2 -p cbr -e 512 -c 2 -i 5 -a 2 -x {0.0 2.0 5 ------- null}
- -t 0.46576 -s 1 -d 2 -p cbr -e 512 -c 2 -i 5 -a 2 -x {0.0 2.0 5 ------- null}
h -t 0.46576 -s 1 -d 2 -p cbr -e 512 -c 2 -i 5 -a 2 -x {0.0 2.0 -1 ------- null}
+ -t 0.47 -s 0 -d 1 -p cbr -e 512 -c 2 -i 54 -a 2 -x {0.0 2.0 54 ------- null}
d -t 0.47 -s 0 -d 1 -p cbr -e 512 -c 2 -i 54 -a 2 -x {0.0 2.0 54 ------- null}
+ -t 0.475 -s 0 -d 1 -p cbr -e 512 -c 2 -i 55 -a 2 -x {0.0 2.0 55 ------- null}
d -t 0.475 -s 0 -d 1 -p cbr -e 512 -c 2 -i 55 -a 2 -x {0.0 2.0 55 ------- null}
+ -t 0.48 -s 0 -d 1 -p cbr -e 512 -c 2 -i 56 -a 2 -x {0.0 2.0 56 ------- null}
d -t 0.48 -s 0 -d 1 -p cbr -e 512 -c 2 -i 56 -a 2 -x {0.0 2.0 56 ------- null}
+ -t 0.485 -s 0 -d 1 -p cbr -e 512 -c 2 -i 57 -a 2 -x {0.0 2.0 57 ------- null}
d -t 0.485 -s 0 -d 1 -p cbr -e 512 -c 2 -i 57 -a 2 -x {0.0 2.0 57 ------- null}
- -t 0.48672 -s 0 -d 1 -p cbr -e 512 -c 2 -i 7 -a 2 -x {0.0 2.0 7 ------- null}
h -t 0.48672 -s 0 -d 1 -p cbr -e 512 -c 2 -i 7 -a 2 -x {0.0 2.0 -1 ------- null}
+ -t 0.49 -s 0 -d 1 -p cbr -e 512 -c 2 -i 58 -a 2 -x {0.0 2.0 58 ------- null}
+ -t 0.495 -s 0 -d 1 -p cbr -e 512 -c 2 -i 59 -a 2 -x {0.0 2.0 59 ------- null}
d -t 0.495 -s 0 -d 1 -p cbr -e 512 -c 2 -i 59 -a 2 -x {0.0 2.0 59 ------- null}
+ -t 0.5 -s 0 -d 1 -p cbr -e 512 -c 2 -i 60 -a 2 -x {0.0 2.0 60 ------- null}
d -t 0.5 -s 0 -d 1 -p cbr -e 512 -c 2 -i 60 -a 2 -x {0.0 2.0 60 ------- null}
+ -t 0.505 -s 0 -d 1 -p cbr -e 512 -c 2 -i 61 -a 2 -x {0.0 2.0 61 ------- null}
d -t 0.505 -s 0 -d 1 -p cbr -e 512 -c 2 -i 61 -a 2 -x {0.0 2.0 61 ------- null}
r -t 0.50624 -s 1 -d 2 -p cbr -e 512 -c 2 -i 5 -a 2 -x {0.0 2.0 5 ------- null}
r -t 0.50672 -s 0 -d 1 -p cbr -e 512 -c 2 -i 6 -a 2 -x {0.0 2.0 6 ------- null}
+ -t 0.50672 -s 1 -d 2 -p cbr -e 512 -c 2 -i 6 -a 2 -x {0.0 2.0 6 ------- null}
- -t 0.50672 -s 1 -d 2 -p cbr -e 512 -c 2 -i 6 -a 2 -x {0.0 2.0 6 ------- null}
h -t 0.50672 -s 1 -d 2 -p cbr -e 512 -c 2 -i 6 -a 2 -x {0.0 2.0 -1 ------- null}
+ -t 0.51 -s 0 -d 1 -p cbr -e 512 -c 2 -i 62 -a 2 -x {0.0 2.0 62 ------- null}
d -t 0.51 -s 0 -d 1 -p cbr -e 512 -c 2 -i 62 -a 2 -x {0.0 2.0 62 ------- null}
+ -t 0.515 -s 0 -d 1 -p cbr -e 512 -c 2 -i 63 -a 2 -x {0.0 2.0 63 ------- null}
d -t 0.515 -s 0 -d 1 -p cbr -e 512 -c 2 -i 63 -a 2 -x {0.0 2.0 63 ------- null}
+ -t 0.52 -s 0 -d 1 -p cbr -e 512 -c 2 -i 64 -a 2 -x {0.0 2.0 64 ------- null}
d -t 0.52 -s 0 -d 1 -p cbr -e 512 -c 2 -i 64 -a 2 -x {0.0 2.0 64 ------- null}
+ -t 0.525 -s 0 -d 1 -p cbr -e 512 -c 2 -i 65 -a 2 -x {0.0 2.0 65 ------- null}
d -t 0.525 -s 0 -d 1 -p cbr -e 512 -c 2 -i 65 -a 2 -x {0.0 2.0 65 ------- null}
- -t 0.52768 -s 0 -d 1 -p cbr -e 512 -c 2 -i 8 -a 2 -x {0.0 2.0 8 ------- null}
h -t 0.52768 -s 0 -d 1 -p cbr -e 512 -c 2 -i 8 -a 2 -x {0.0 2.0 -1 ------- null}
+ -t 0.53 -s 0 -d 1 -p cbr -e 512 -c 2 -i 66 -a 2 -x {0.0 2.0 66 ------- null}
+ -t 0.535 -s 0 -d 1 -p cbr -e 512 -c 2 -i 67 -a 2 -x {0.0 2.0 67 ------- null}
d -t 0.535 -s 0 -d 1 -p cbr -e 512 -c 2 -i 67 -a 2 -x {0.0 2.0 67 ------- null}
+ -t 0.54 -s 0 -d 1 -p cbr -e 512 -c 2 -i 68 -a 2 -x {0.0 2.0 68 ------- null}
d -t 0.54 -s 0 -d 1 -p cbr -e 512 -c 2 -i 68 -a 2 -x {0.0 2.0 68 ------- null}
+ -t 0.545 -s 0 -d 1 -p cbr -e 512 -c 2 -i 69 -a 2 -x {0.0 2.0 69 ------- null}
d -t 0.545 -s 0 -d 1 -p cbr -e 512 -c 2 -i 69 -a 2 -x {0.0 2.0 69 ------- null}
r -t 0.5472 -s 1 -d 2 -p cbr -e 512 -c 2 -i 6 -a 2 -x {0.0 2.0 6 ------- null}
r -t 0.54768 -s 0 -d 1 -p cbr -e 512 -c 2 -i 7 -a 2 -x {0.0 2.0 7 ------- null}
+ -t 0.54768 -s 1 -d 2 -p cbr -e 512 -c 2 -i 7 -a 2 -x {0.0 2.0 7 ------- null}
- -t 0.54768 -s 1 -d 2 -p cbr -e 512 -c 2 -i 7 -a 2 -x {0.0 2.0 7 ------- null}
h -t 0.54768 -s 1 -d 2 -p cbr -e 512 -c 2 -i 7 -a 2 -x {0.0 2.0 -1 ------- null}
+ -t 0.55 -s 0 -d 1 -p cbr -e 512 -c 2 -i 70 -a 2 -x {0.0 2.0 70 ------- null}
d -t 0.55 -s 0 -d 1 -p cbr -e 512 -c 2 -i 70 -a 2 -x {0.0 2.0 70 ------- null}
+ -t 0.555 -s 0 -d 1 -p cbr -e 512 -c 2 -i 71 -a 2 -x {0.0 2.0 71 ------- null}
d -t 0.555 -s 0 -d 1 -p cbr -e 512 -c 2 -i 71 -a 2 -x {0.0 2.0 71 ------- null}
+ -t 0.56 -s 0 -d 1 -p cbr -e 512 -c 2 -i 72 -a 2 -x {0.0 2.0 72 ------- null}
d -t 0.56 -s 0 -d 1 -p cbr -e 512 -c 2 -i 72 -a 2 -x {0.0 2.0 72 ------- null}
+ -t 0.565 -s 0 -d 1 -p cbr -e 512 -c 2 -i 73 -a 2 -x {0.0 2.0 73 ------- null}
d -t 0.565 -s 0 -d 1 -p cbr -e 512 -c 2 -i 73 -a 2 -x {0.0 2.0 73 ------- null}
- -t 0.56864 -s 0 -d 1 -p cbr -e 512 -c 2 -i 9 -a 2 -x {0.0 2.0 9 ------- null}
h -t 0.56864 -s 0 -d 1 -p cbr -e 512 -c 2 -i 9 -a 2 -x {0.0 2.0 -1 ------- null}
+ -t 0.57 -s 0 -d 1 -p cbr -e 512 -c 2 -i 74 -a 2 -x {0.0 2.0 74 ------- null}
+ -t 0.575 -s 0 -d 1 -p cbr -e 512 -c 2 -i 75 -a 2 -x {0.0 2.0 75 ------- null}
d -t 0.575 -s 0 -d 1 -p cbr -e 512 -c 2 -i 75 -a 2 -x {0.0 2.0 75 ------- null}
+ -t 0.58 -s 0 -d 1 -p cbr -e 512 -c 2 -i 76 -a 2 -x {0.0 2.0 76 ------- null}
d -t 0.58 -s 0 -d 1 -p cbr -e 512 -c 2 -i 76 -a 2 -x {0.0 2.0 76 ------- null}
+ -t 0.585 -s 0 -d 1 -p cbr -e 512 -c 2 -i 77 -a 2 -x {0.0 2.0 77 ------- null}
d -t 0.585 -s 0 -d 1 -p cbr -e 512 -c 2 -i 77 -a 2 -x {0.0 2.0 77 ------- null}
r -t 0.58816 -s 1 -d 2 -p cbr -e 512 -c 2 -i 7 -a 2 -x {0.0 2.0 7 ------- null}
r -t 0.58864 -s 0 -d 1 -p cbr -e 512 -c 2 -i 8 -a 2 -x {0.0 2.0 8 ------- null}
+ -t 0.58864 -s 1 -d 2 -p cbr -e 512 -c 2 -i 8 -a 2 -x {0.0 2.0 8 ------- null}
- -t 0.58864 -s 1 -d 2 -p cbr -e 512 -c 2 -i 8 -a 2 -x {0.0 2.0 8 ------- null}
h -t 0.58864 -s 1 -d 2 -p cbr -e 512 -c 2 -i 8 -a 2 -x {0.0 2.0 -1 ------- null}
+ -t 0.59 -s 0 -d 1 -p cbr -e 512 -c 2 -i 78 -a 2 -x {0.0 2.0 78 ------- null}
d -t 0.59 -s 0 -d 1 -p cbr -e 512 -c 2 -i 78 -a 2 -x {0.0 2.0 78 ------- null}
+ -t 0.595 -s 0 -d 1 -p cbr -e 512 -c 2 -i 79 -a 2 -x {0.0 2.0 79 ------- null}
d -t 0.595 -s 0 -d 1 -p cbr -e 512 -c 2 -i 79 -a 2 -x {0.0 2.0 79 ------- null}
+ -t 0.6 -s 0 -d 1 -p cbr -e 512 -c 2 -i 80 -a 2 -x {0.0 2.0 80 ------- null}
d -t 0.6 -s 0 -d 1 -p cbr -e 512 -c 2 -i 80 -a 2 -x {0.0 2.0 80 ------- null}
+ -t 0.605 -s 0 -d 1 -p cbr -e 512 -c 2 -i 81 -a 2 -x {0.0 2.0 81 ------- null}
d -t 0.605 -s 0 -d 1 -p cbr -e 512 -c 2 -i 81 -a 2 -x {0.0 2.0 81 ------- null}
- -t 0.6096 -s 0 -d 1 -p cbr -e 512 -c 2 -i 10 -a 2 -x {0.0 2.0 10 ------- null}
h -t 0.6096 -s 0 -d 1 -p cbr -e 512 -c 2 -i 10 -a 2 -x {0.0 2.0 -1 ------- null}
+ -t 0.61 -s 0 -d 1 -p cbr -e 512 -c 2 -i 82 -a 2 -x {0.0 2.0 82 ------- null}
+ -t 0.615 -s 0 -d 1 -p cbr -e 512 -c 2 -i 83 -a 2 -x {0.0 2.0 83 ------- null}
d -t 0.615 -s 0 -d 1 -p cbr -e 512 -c 2 -i 83 -a 2 -x {0.0 2.0 83 ------- null}
+ -t 0.62 -s 0 -d 1 -p cbr -e 512 -c 2 -i 84 -a 2 -x {0.0 2.0 84 ------- null}
d -t 0.62 -s 0 -d 1 -p cbr -e 512 -c 2 -i 84 -a 2 -x {0.0 2.0 84 ------- null}
+ -t 0.625 -s 0 -d 1 -p cbr -e 512 -c 2 -i 85 -a 2 -x {0.0 2.0 85 ------- null}
d -t 0.625 -s 0 -d 1 -p cbr -e 512 -c 2 -i 85 -a 2 -x {0.0 2.0 85 ------- null}
r -t 0.62912 -s 1 -d 2 -p cbr -e 512 -c 2 -i 8 -a 2 -x {0.0 2.0 8 ------- null}
r -t 0.6296 -s 0 -d 1 -p cbr -e 512 -c 2 -i 9 -a 2 -x {0.0 2.0 9 ------- null}
+ -t 0.6296 -s 1 -d 2 -p cbr -e 512 -c 2 -i 9 -a 2 -x {0.0 2.0 9 ------- null}
- -t 0.6296 -s 1 -d 2 -p cbr -e 512 -c 2 -i 9 -a 2 -x {0.0 2.0 9 ------- null}
h -t 0.6296 -s 1 -d 2 -p cbr -e 512 -c 2 -i 9 -a 2 -x {0.0 2.0 -1 ------- null}
+ -t 0.63 -s 0 -d 1 -p cbr -e 512 -c 2 -i 86 -a 2 -x {0.0 2.0 86 ------- null}
d -t 0.63 -s 0 -d 1 -p cbr -e 512 -c 2 -i 86 -a 2 -x {0.0 2.0 86 ------- null}
+ -t 0.635 -s 0 -d 1 -p cbr -e 512 -c 2 -i 87 -a 2 -x {0.0 2.0 87 ------- null}
d -t 0.635 -s 0 -d 1 -p cbr -e 512 -c 2 -i 87 -a 2 -x {0.0 2.0 87 ------- null}
+ -t 0.64 -s 0 -d 1 -p cbr -e 512 -c 2 -i 88 -a 2 -x {0.0 2.0 88 ------- null}
d -t 0.64 -s 0 -d 1 -p cbr -e 512 -c 2 -i 88 -a 2 -x {0.0 2.0 88 ------- null}
+ -t 0.645 -s 0 -d 1 -p cbr -e 512 -c 2 -i 89 -a 2 -x {0.0 2.0 89 ------- null}
d -t 0.645 -s 0 -d 1 -p cbr -e 512 -c 2 -i 89 -a 2 -x {0.0 2.0 89 ------- null}
+ -t 0.65 -s 0 -d 1 -p cbr -e 512 -c 2 -i 90 -a 2 -x {0.0 2.0 90 ------- null}
d -t 0.65 -s 0 -d 1 -p cbr -e 512 -c 2 -i 90 -a 2 -x {0.0 2.0 90 ------- null}
- -t 0.65056 -s 0 -d 1 -p cbr -e 512 -c 2 -i 17 -a 2 -x {0.0 2.0 17 ------- null}
h -t 0.65056 -s 0 -d 1 -p cbr -e 512 -c 2 -i 17 -a 2 -x {0.0 2.0 -1 ------- null}
+ -t 0.655 -s 0 -d 1 -p cbr -e 512 -c 2 -i 91 -a 2 -x {0.0 2.0 91 ------- null}
+ -t 0.66 -s 0 -d 1 -p cbr -e 512 -c 2 -i 92 -a 2 -x {0.0 2.0 92 ------- null}
d -t 0.66 -s 0 -d 1 -p cbr -e 512 -c 2 -i 92 -a 2 -x {0.0 2.0 92 ------- null}
+ -t 0.665 -s 0 -d 1 -p cbr -e 512 -c 2 -i 93 -a 2 -x {0.0 2.0 93 ------- null}
d -t 0.665 -s 0 -d 1 -p cbr -e 512 -c 2 -i 93 -a 2 -x {0.0 2.0 93 ------- null}
+ -t 0.67 -s 0 -d 1 -p cbr -e 512 -c 2 -i 94 -a 2 -x {0.0 2.0 94 ------- null}
d -t 0.67 -s 0 -d 1 -p cbr -e 512 -c 2 -i 94 -a 2 -x {0.0 2.0 94 ------- null}
r -t 0.67008 -s 1 -d 2 -p cbr -e 512 -c 2 -i 9 -a 2 -x {0.0 2.0 9 ------- null}
r -t 0.67056 -s 0 -d 1 -p cbr -e 512 -c 2 -i 10 -a 2 -x {0.0 2.0 10 ------- null}
+ -t 0.67056 -s 1 -d 2 -p cbr -e 512 -c 2 -i 10 -a 2 -x {0.0 2.0 10 ------- null}
- -t 0.67056 -s 1 -d 2 -p cbr -e 512 -c 2 -i 10 -a 2 -x {0.0 2.0 10 ------- null}
h -t 0.67056 -s 1 -d 2 -p cbr -e 512 -c 2 -i 10 -a 2 -x {0.0 2.0 -1 ------- null}
+ -t 0.675 -s 0 -d 1 -p cbr -e 512 -c 2 -i 95 -a 2 -x {0.0 2.0 95 ------- null}
d -t 0.675 -s 0 -d 1 -p cbr -e 512 -c 2 -i 95 -a 2 -x {0.0 2.0 95 ------- null}
+ -t 0.68 -s 0 -d 1 -p cbr -e 512 -c 2 -i 96 -a 2 -x {0.0 2.0 96 ------- null}
d -t 0.68 -s 0 -d 1 -p cbr -e 512 -c 2 -i 96 -a 2 -x {0.0 2.0 96 ------- null}
+ -t 0.685 -s 0 -d 1 -p cbr -e 512 -c 2 -i 97 -a 2 -x {0.0 2.0 97 ------- null}
d -t 0.685 -s 0 -d 1 -p cbr -e 512 -c 2 -i 97 -a 2 -x {0.0 2.0 97 ------- null}
+ -t 0.69 -s 0 -d 1 -p cbr -e 512 -c 2 -i 98 -a 2 -x {0.0 2.0 98 ------- null}
d -t 0.69 -s 0 -d 1 -p cbr -e 512 -c 2 -i 98 -a 2 -x {0.0 2.0 98 ------- null}
- -t 0.69152 -s 0 -d 1 -p cbr -e 512 -c 2 -i 25 -a 2 -x {0.0 2.0 25 ------- null}
h -t 0.69152 -s 0 -d 1 -p cbr -e 512 -c 2 -i 25 -a 2 -x {0.0 2.0 -1 ------- null}
+ -t 0.695 -s 0 -d 1 -p cbr -e 512 -c 2 -i 99 -a 2 -x {0.0 2.0 99 ------- null}
+ -t 0.7 -s 0 -d 1 -p cbr -e 512 -c 2 -i 100 -a 2 -x {0.0 2.0 100 ------- null}
d -t 0.7 -s 0 -d 1 -p cbr -e 512 -c 2 -i 100 -a 2 -x {0.0 2.0 100 ------- null}
+ -t 0.705 -s 0 -d 1 -p cbr -e 512 -c 2 -i 101 -a 2 -x {0.0 2.0 101 ------- null}
d -t 0.705 -s 0 -d 1 -p cbr -e 512 -c 2 -i 101 -a 2 -x {0.0 2.0 101 ------- null}
+ -t 0.71 -s 0 -d 1 -p cbr -e 512 -c 2 -i 102 -a 2 -x {0.0 2.0 102 ------- null}
d -t 0.71 -s 0 -d 1 -p cbr -e 512 -c 2 -i 102 -a 2 -x {0.0 2.0 102 ------- null}
r -t 0.71104 -s 1 -d 2 -p cbr -e 512 -c 2 -i 10 -a 2 -x {0.0 2.0 10 ------- null}
r -t 0.71152 -s 0 -d 1 -p cbr -e 512 -c 2 -i 17 -a 2 -x {0.0 2.0 17 ------- null}
+ -t 0.71152 -s 1 -d 2 -p cbr -e 512 -c 2 -i 17 -a 2 -x {0.0 2.0 17 ------- null}
- -t 0.71152 -s 1 -d 2 -p cbr -e 512 -c 2 -i 17 -a 2 -x {0.0 2.0 17 ------- null}
h -t 0.71152 -s 1 -d 2 -p cbr -e 512 -c 2 -i 17 -a 2 -x {0.0 2.0 -1 ------- null}
+ -t 0.715 -s 0 -d 1 -p cbr -e 512 -c 2 -i 103 -a 2 -x {0.0 2.0 103 ------- null}
d -t 0.715 -s 0 -d 1 -p cbr -e 512 -c 2 -i 103 -a 2 -x {0.0 2.0 103 ------- null}
+ -t 0.72 -s 0 -d 1 -p cbr -e 512 -c 2 -i 104 -a 2 -x {0.0 2.0 104 ------- null}
d -t 0.72 -s 0 -d 1 -p cbr -e 512 -c 2 -i 104 -a 2 -x {0.0 2.0 104 ------- null}
+ -t 0.725 -s 0 -d 1 -p cbr -e 512 -c 2 -i 105 -a 2 -x {0.0 2.0 105 ------- null}
d -t 0.725 -s 0 -d 1 -p cbr -e 512 -c 2 -i 105 -a 2 -x {0.0 2.0 105 ------- null}
+ -t 0.73 -s 0 -d 1 -p cbr -e 512 -c 2 -i 106 -a 2 -x {0.0 2.0 106 ------- null}
d -t 0.73 -s 0 -d 1 -p cbr -e 512 -c 2 -i 106 -a 2 -x {0.0 2.0 106 ------- null}
- -t 0.73248 -s 0 -d 1 -p cbr -e 512 -c 2 -i 33 -a 2 -x {0.0 2.0 33 ------- null}
h -t 0.73248 -s 0 -d 1 -p cbr -e 512 -c 2 -i 33 -a 2 -x {0.0 2.0 -1 ------- null}
+ -t 0.735 -s 0 -d 1 -p cbr -e 512 -c 2 -i 107 -a 2 -x {0.0 2.0 107 ------- null}
+ -t 0.74 -s 0 -d 1 -p cbr -e 512 -c 2 -i 108 -a 2 -x {0.0 2.0 108 ------- null}
d -t 0.74 -s 0 -d 1 -p cbr -e 512 -c 2 -i 108 -a 2 -x {0.0 2.0 108 ------- null}
+ -t 0.745 -s 0 -d 1 -p cbr -e 512 -c 2 -i 109 -a 2 -x {0.0 2.0 109 ------- null}
d -t 0.745 -s 0 -d 1 -p cbr -e 512 -c 2 -i 109 -a 2 -x {0.0 2.0 109 ------- null}
+ -t 0.75 -s 0 -d 1 -p cbr -e 512 -c 2 -i 110 -a 2 -x {0.0 2.0 110 ------- null}
d -t 0.75 -s 0 -d 1 -p cbr -e 512 -c 2 -i 110 -a 2 -x {0.0 2.0 110 ------- null}
r -t 0.752 -s 1 -d 2 -p cbr -e 512 -c 2 -i 17 -a 2 -x {0.0 2.0 17 ------- null}
r -t 0.75248 -s 0 -d 1 -p cbr -e 512 -c 2 -i 25 -a 2 -x {0.0 2.0 25 ------- null}
+ -t 0.75248 -s 1 -d 2 -p cbr -e 512 -c 2 -i 25 -a 2 -x {0.0 2.0 25 ------- null}
- -t 0.75248 -s 1 -d 2 -p cbr -e 512 -c 2 -i 25 -a 2 -x {0.0 2.0 25 ------- null}
h -t 0.75248 -s 1 -d 2 -p cbr -e 512 -c 2 -i 25 -a 2 -x {0.0 2.0 -1 ------- null}
+ -t 0.755 -s 0 -d 1 -p cbr -e 512 -c 2 -i 111 -a 2 -x {0.0 2.0 111 ------- null}
d -t 0.755 -s 0 -d 1 -p cbr -e 512 -c 2 -i 111 -a 2 -x {0.0 2.0 111 ------- null}
+ -t 0.76 -s 0 -d 1 -p cbr -e 512 -c 2 -i 112 -a 2 -x {0.0 2.0 112 ------- null}
d -t 0.76 -s 0 -d 1 -p cbr -e 512 -c 2 -i 112 -a 2 -x {0.0 2.0 112 ------- null}
+ -t 0.765 -s 0 -d 1 -p cbr -e 512 -c 2 -i 113 -a 2 -x {0.0 2.0 113 ------- null}
d -t 0.765 -s 0 -d 1 -p cbr -e 512 -c 2 -i 113 -a 2 -x {0.0 2.0 113 ------- null}
+ -t 0.77 -s 0 -d 1 -p cbr -e 512 -c 2 -i 114 -a 2 -x {0.0 2.0 114 ------- null}
d -t 0.77 -s 0 -d 1 -p cbr -e 512 -c 2 -i 114 -a 2 -x {0.0 2.0 114 ------- null}
- -t 0.77344 -s 0 -d 1 -p cbr -e 512 -c 2 -i 41 -a 2 -x {0.0 2.0 41 ------- null}
h -t 0.77344 -s 0 -d 1 -p cbr -e 512 -c 2 -i 41 -a 2 -x {0.0 2.0 -1 ------- null}
+ -t 0.775 -s 0 -d 1 -p cbr -e 512 -c 2 -i 115 -a 2 -x {0.0 2.0 115 ------- null}
+ -t 0.78 -s 0 -d 1 -p cbr -e 512 -c 2 -i 116 -a 2 -x {0.0 2.0 116 ------- null}
d -t 0.78 -s 0 -d 1 -p cbr -e 512 -c 2 -i 116 -a 2 -x {0.0 2.0 116 ------- null}
+ -t 0.785 -s 0 -d 1 -p cbr -e 512 -c 2 -i 117 -a 2 -x {0.0 2.0 117 ------- null}
d -t 0.785 -s 0 -d 1 -p cbr -e 512 -c 2 -i 117 -a 2 -x {0.0 2.0 117 ------- null}
+ -t 0.79 -s 0 -d 1 -p cbr -e 512 -c 2 -i 118 -a 2 -x {0.0 2.0 118 ------- null}
d -t 0.79 -s 0 -d 1 -p cbr -e 512 -c 2 -i 118 -a 2 -x {0.0 2.0 118 ------- null}
r -t 0.79296 -s 1 -d 2 -p cbr -e 512 -c 2 -i 25 -a 2 -x {0.0 2.0 25 ------- null}
r -t 0.79344 -s 0 -d 1 -p cbr -e 512 -c 2 -i 33 -a 2 -x {0.0 2.0 33 ------- null}
+ -t 0.79344 -s 1 -d 2 -p cbr -e 512 -c 2 -i 33 -a 2 -x {0.0 2.0 33 ------- null}
- -t 0.79344 -s 1 -d 2 -p cbr -e 512 -c 2 -i 33 -a 2 -x {0.0 2.0 33 ------- null}
h -t 0.79344 -s 1 -d 2 -p cbr -e 512 -c 2 -i 33 -a 2 -x {0.0 2.0 -1 ------- null}
+ -t 0.795 -s 0 -d 1 -p cbr -e 512 -c 2 -i 119 -a 2 -x {0.0 2.0 119 ------- null}
d -t 0.795 -s 0 -d 1 -p cbr -e 512 -c 2 -i 119 -a 2 -x {0.0 2.0 119 ------- null}
+ -t 0.8 -s 0 -d 1 -p cbr -e 512 -c 2 -i 120 -a 2 -x {0.0 2.0 120 ------- null}
d -t 0.8 -s 0 -d 1 -p cbr -e 512 -c 2 -i 120 -a 2 -x {0.0 2.0 120 ------- null}
+ -t 0.805 -s 0 -d 1 -p cbr -e 512 -c 2 -i 121 -a 2 -x {0.0 2.0 121 ------- null}
d -t 0.805 -s 0 -d 1 -p cbr -e 512 -c 2 -i 121 -a 2 -x {0.0 2.0 121 ------- null}
+ -t 0.81 -s 0 -d 1 -p cbr -e 512 -c 2 -i 122 -a 2 -x {0.0 2.0 122 ------- null}
d -t 0.81 -s 0 -d 1 -p cbr -e 512 -c 2 -i 122 -a 2 -x {0.0 2.0 122 ------- null}
- -t 0.8144 -s 0 -d 1 -p cbr -e 512 -c 2 -i 50 -a 2 -x {0.0 2.0 50 ------- null}
h -t 0.8144 -s 0 -d 1 -p cbr -e 512 -c 2 -i 50 -a 2 -x {0.0 2.0 -1 ------- null}
+ -t 0.815000000000001 -s 0 -d 1 -p cbr -e 512 -c 2 -i 123 -a 2 -x {0.0 2.0 123 ------- null}
+ -t 0.820000000000001 -s 0 -d 1 -p cbr -e 512 -c 2 -i 124 -a 2 -x {0.0 2.0 124 ------- null}
d -t 0.820000000000001 -s 0 -d 1 -p cbr -e 512 -c 2 -i 124 -a 2 -x {0.0 2.0 124 ------- null}
+ -t 0.825000000000001 -s 0 -d 1 -p cbr -e 512 -c 2 -i 125 -a 2 -x {0.0 2.0 125 ------- null}
d -t 0.825000000000001 -s 0 -d 1 -p cbr -e 512 -c 2 -i 125 -a 2 -x {0.0 2.0 125 ------- null}
+ -t 0.830000000000001 -s 0 -d 1 -p cbr -e 512 -c 2 -i 126 -a 2 -x {0.0 2.0 126 ------- null}
d -t 0.830000000000001 -s 0 -d 1 -p cbr -e 512 -c 2 -i 126 -a 2 -x {0.0 2.0 126 ------- null}
r -t 0.83392 -s 1 -d 2 -p cbr -e 512 -c 2 -i 33 -a 2 -x {0.0 2.0 33 ------- null}
r -t 0.8344 -s 0 -d 1 -p cbr -e 512 -c 2 -i 41 -a 2 -x {0.0 2.0 41 ------- null}
+ -t 0.8344 -s 1 -d 2 -p cbr -e 512 -c 2 -i 41 -a 2 -x {0.0 2.0 41 ------- null}
- -t 0.8344 -s 1 -d 2 -p cbr -e 512 -c 2 -i 41 -a 2 -x {0.0 2.0 41 ------- null}
h -t 0.8344 -s 1 -d 2 -p cbr -e 512 -c 2 -i 41 -a 2 -x {0.0 2.0 -1 ------- null}
+ -t 0.835000000000001 -s 0 -d 1 -p cbr -e 512 -c 2 -i 127 -a 2 -x {0.0 2.0 127 ------- null}
d -t 0.835000000000001 -s 0 -d 1 -p cbr -e 512 -c 2 -i 127 -a 2 -x {0.0 2.0 127 ------- null}
+ -t 0.840000000000001 -s 0 -d 1 -p cbr -e 512 -c 2 -i 128 -a 2 -x {0.0 2.0 128 ------- null}
d -t 0.840000000000001 -s 0 -d 1 -p cbr -e 512 -c 2 -i 128 -a 2 -x {0.0 2.0 128 ------- null}
+ -t 0.845000000000001 -s 0 -d 1 -p cbr -e 512 -c 2 -i 129 -a 2 -x {0.0 2.0 129 ------- null}
d -t 0.845000000000001 -s 0 -d 1 -p cbr -e 512 -c 2 -i 129 -a 2 -x {0.0 2.0 129 ------- null}
+ -t 0.850000000000001 -s 0 -d 1 -p cbr -e 512 -c 2 -i 130 -a 2 -x {0.0 2.0 130 ------- null}
d -t 0.850000000000001 -s 0 -d 1 -p cbr -e 512 -c 2 -i 130 -a 2 -x {0.0 2.0 130 ------- null}
+ -t 0.855000000000001 -s 0 -d 1 -p cbr -e 512 -c 2 -i 131 -a 2 -x {0.0 2.0 131 ------- null}
d -t 0.855000000000001 -s 0 -d 1 -p cbr -e 512 -c 2 -i 131 -a 2 -x {0.0 2.0 131 ------- null}
- -t 0.85536 -s 0 -d 1 -p cbr -e 512 -c 2 -i 58 -a 2 -x {0.0 2.0 58 ------- null}
h -t 0.85536 -s 0 -d 1 -p cbr -e 512 -c 2 -i 58 -a 2 -x {0.0 2.0 -1 ------- null}
+ -t 0.860000000000001 -s 0 -d 1 -p cbr -e 512 -c 2 -i 132 -a 2 -x {0.0 2.0 132 ------- null}
+ -t 0.865000000000001 -s 0 -d 1 -p cbr -e 512 -c 2 -i 133 -a 2 -x {0.0 2.0 133 ------- null}
d -t 0.865000000000001 -s 0 -d 1 -p cbr -e 512 -c 2 -i 133 -a 2 -x {0.0 2.0 133 ------- null}
+ -t 0.870000000000001 -s 0 -d 1 -p cbr -e 512 -c 2 -i 134 -a 2 -x {0.0 2.0 134 ------- null}
d -t 0.870000000000001 -s 0 -d 1 -p cbr -e 512 -c 2 -i 134 -a 2 -x {0.0 2.0 134 ------- null}
r -t 0.87488 -s 1 -d 2 -p cbr -e 512 -c 2 -i 41 -a 2 -x {0.0 2.0 41 ------- null}
+ -t 0.875000000000001 -s 0 -d 1 -p cbr -e 512 -c 2 -i 135 -a 2 -x {0.0 2.0 135 ------- null}
d -t 0.875000000000001 -s 0 -d 1 -p cbr -e 512 -c 2 -i 135 -a 2 -x {0.0 2.0 135 ------- null}
r -t 0.87536 -s 0 -d 1 -p cbr -e 512 -c 2 -i 50 -a 2 -x {0.0 2.0 50 ------- null}
+ -t 0.87536 -s 1 -d 2 -p cbr -e 512 -c 2 -i 50 -a 2 -x {0.0 2.0 50 ------- null}
- -t 0.87536 -s 1 -d 2 -p cbr -e 512 -c 2 -i 50 -a 2 -x {0.0 2.0 50 ------- null}
h -t 0.87536 -s 1 -d 2 -p cbr -e 512 -c 2 -i 50 -a 2 -x {0.0 2.0 -1 ------- null}
+ -t 0.880000000000001 -s 0 -d 1 -p cbr -e 512 -c 2 -i 136 -a 2 -x {0.0 2.0 136 ------- null}
d -t 0.880000000000001 -s 0 -d 1 -p cbr -e 512 -c 2 -i 136 -a 2 -x {0.0 2.0 136 ------- null}
+ -t 0.885000000000001 -s 0 -d 1 -p cbr -e 512 -c 2 -i 137 -a 2 -x {0.0 2.0 137 ------- null}
d -t 0.885000000000001 -s 0 -d 1 -p cbr -e 512 -c 2 -i 137 -a 2 -x {0.0 2.0 137 ------- null}
+ -t 0.890000000000001 -s 0 -d 1 -p cbr -e 512 -c 2 -i 138 -a 2 -x {0.0 2.0 138 ------- null}
d -t 0.890000000000001 -s 0 -d 1 -p cbr -e 512 -c 2 -i 138 -a 2 -x {0.0 2.0 138 ------- null}