+ 0 1 0 ping 64 ------- 0 1.0 4.0 -1 0
- 0 1 0 ping 64 ------- 0 1.0 4.0 -1 0
r 0.010256 1 0 ping 64 ------- 0 1.0 4.0 -1 0
+ 0.010256 0 4 ping 64 ------- 0 1.0 4.0 -1 0
- 0.010256 0 4 ping 64 ------- 0 1.0 4.0 -1 0
r 0.020512 0 4 ping 64 ------- 0 1.0 4.0 -1 0
+ 0.020512 4 0 ping 64 ------- 0 4.0 1.0 -1 1
- 0.020512 4 0 ping 64 ------- 0 4.0 1.0 -1 1
r 0.030768 4 0 ping 64 ------- 0 4.0 1.0 -1 1
+ 0.030768 0 1 ping 64 ------- 0 4.0 1.0 -1 1
- 0.030768 0 1 ping 64 ------- 0 4.0 1.0 -1 1
r 0.041024 0 1 ping 64 ------- 0 4.0 1.0 -1 1
+ 0.4 2 0 ping 64 ------- 0 2.0 5.0 -1 2
- 0.4 2 0 ping 64 ------- 0 2.0 5.0 -1 2
r 0.410256 2 0 ping 64 ------- 0 2.0 5.0 -1 2
+ 0.410256 0 5 ping 64 ------- 0 2.0 5.0 -1 2
d 0.410256 0 5 ping 64 ------- 0 2.0 5.0 -1 2
+ 0.8 3 0 ping 64 ------- 0 3.0 6.0 -1 3
- 0.8 3 0 ping 64 ------- 0 3.0 6.0 -1 3
r 0.810256 3 0 ping 64 ------- 0 3.0 6.0 -1 3
+ 0.810256 0 6 ping 64 ------- 0 3.0 6.0 -1 3
d 0.810256 0 6 ping 64 ------- 0 3.0 6.0 -1 3
+ 1.2 4 0 ping 64 ------- 0 4.0 1.0 -1 4
- 1.2 4 0 ping 64 ------- 0 4.0 1.0 -1 4
r 1.210256 4 0 ping 64 ------- 0 4.0 1.0 -1 4
+ 1.210256 0 1 ping 64 ------- 0 4.0 1.0 -1 4
- 1.210256 0 1 ping 64 ------- 0 4.0 1.0 -1 4
r 1.220512 0 1 ping 64 ------- 0 4.0 1.0 -1 4
+ 1.220512 1 0 ping 64 ------- 0 1.0 4.0 -1 5
- 1.220512 1 0 ping 64 ------- 0 1.0 4.0 -1 5
r 1.230768 1 0 ping 64 ------- 0 1.0 4.0 -1 5
+ 1.230768 0 4 ping 64 ------- 0 1.0 4.0 -1 5
- 1.230768 0 4 ping 64 ------- 0 1.0 4.0 -1 5
r 1.241024 0 4 ping 64 ------- 0 1.0 4.0 -1 5
+ 1.6 5 0 ping 64 ------- 0 5.0 2.0 -1 6
- 1.6 5 0 ping 64 ------- 0 5.0 2.0 -1 6
r 1.610256 5 0 ping 64 ------- 0 5.0 2.0 -1 6
+ 1.610256 0 2 ping 64 ------- 0 5.0 2.0 -1 6
- 1.610256 0 2 ping 64 ------- 0 5.0 2.0 -1 6
r 1.620512 0 2 ping 64 ------- 0 5.0 2.0 -1 6
+ 1.620512 2 0 ping 64 ------- 0 2.0 5.0 -1 7
- 1.620512 2 0 ping 64 ------- 0 2.0 5.0 -1 7
r 1.630768 2 0 ping 64 ------- 0 2.0 5.0 -1 7
+ 1.630768 0 5 ping 64 ------- 0 2.0 5.0 -1 7
d 1.630768 0 5 ping 64 ------- 0 2.0 5.0 -1 7
+ 2 6 0 ping 64 ------- 0 6.0 3.0 -1 8
- 2 6 0 ping 64 ------- 0 6.0 3.0 -1 8
r 2.010256 6 0 ping 64 ------- 0 6.0 3.0 -1 8
+ 2.010256 0 3 ping 64 ------- 0 6.0 3.0 -1 8
- 2.010256 0 3 ping 64 ------- 0 6.0 3.0 -1 8
r 2.020512 0 3 ping 64 ------- 0 6.0 3.0 -1 8
+ 2.020512 3 0 ping 64 ------- 0 3.0 6.0 -1 9
- 2.020512 3 0 ping 64 ------- 0 3.0 6.0 -1 9
r 2.030768 3 0 ping 64 ------- 0 3.0 6.0 -1 9
+ 2.030768 0 6 ping 64 ------- 0 3.0 6.0 -1 9
d 2.030768 0 6 ping 64 ------- 0 3.0 6.0 -1 9
