+ 0 1 0 ping 64 ------- 0 1.0 4.0 -1 0
- 0 1 0 ping 64 ------- 0 1.0 4.0 -1 0
r 0.012256 1 0 ping 64 ------- 0 1.0 4.0 -1 0
+ 0.012256 0 4 ping 64 ------- 0 1.0 4.0 -1 0
- 0.012256 0 4 ping 64 ------- 0 1.0 4.0 -1 0
r 0.022512 0 4 ping 64 ------- 0 1.0 4.0 -1 0
+ 0.022512 4 0 ping 64 ------- 0 4.0 1.0 -1 1
- 0.022512 4 0 ping 64 ------- 0 4.0 1.0 -1 1
r 0.032768 4 0 ping 64 ------- 0 4.0 1.0 -1 1
+ 0.032768 0 1 ping 64 ------- 0 4.0 1.0 -1 1
- 0.032768 0 1 ping 64 ------- 0 4.0 1.0 -1 1
r 0.045024 0 1 ping 64 ------- 0 4.0 1.0 -1 1
+ 0.4 2 0 ping 64 ------- 0 2.0 5.0 -1 2
- 0.4 2 0 ping 64 ------- 0 2.0 5.0 -1 2
r 0.410256 2 0 ping 64 ------- 0 2.0 5.0 -1 2
+ 0.410256 0 5 ping 64 ------- 0 2.0 5.0 -1 2
- 0.410256 0 5 ping 64 ------- 0 2.0 5.0 -1 2
r 0.421512 0 5 ping 64 ------- 0 2.0 5.0 -1 2
+ 0.421512 5 0 ping 64 ------- 0 5.0 2.0 -1 3
- 0.421512 5 0 ping 64 ------- 0 5.0 2.0 -1 3
r 0.432768 5 0 ping 64 ------- 0 5.0 2.0 -1 3
+ 0.432768 0 2 ping 64 ------- 0 5.0 2.0 -1 3
- 0.432768 0 2 ping 64 ------- 0 5.0 2.0 -1 3
r 0.443024 0 2 ping 64 ------- 0 5.0 2.0 -1 3
+ 0.8 3 0 ping 64 ------- 0 3.0 6.0 -1 4
- 0.8 3 0 ping 64 ------- 0 3.0 6.0 -1 4
r 0.810256 3 0 ping 64 ------- 0 3.0 6.0 -1 4
+ 0.810256 0 6 ping 64 ------- 0 3.0 6.0 -1 4
- 0.810256 0 6 ping 64 ------- 0 3.0 6.0 -1 4
r 0.820512 0 6 ping 64 ------- 0 3.0 6.0 -1 4
+ 0.820512 6 0 ping 64 ------- 0 6.0 3.0 -1 5
- 0.820512 6 0 ping 64 ------- 0 6.0 3.0 -1 5
r 0.830768 6 0 ping 64 ------- 0 6.0 3.0 -1 5
+ 0.830768 0 3 ping 64 ------- 0 6.0 3.0 -1 5
- 0.830768 0 3 ping 64 ------- 0 6.0 3.0 -1 5
r 0.841024 0 3 ping 64 ------- 0 6.0 3.0 -1 5
+ 1.2 4 0 ping 64 ------- 0 4.0 1.0 -1 6
- 1.2 4 0 ping 64 ------- 0 4.0 1.0 -1 6
r 1.210256 4 0 ping 64 ------- 0 4.0 1.0 -1 6
+ 1.210256 0 1 ping 64 ------- 0 4.0 1.0 -1 6
- 1.210256 0 1 ping 64 ------- 0 4.0 1.0 -1 6
r 1.222512 0 1 ping 64 ------- 0 4.0 1.0 -1 6
+ 1.222512 1 0 ping 64 ------- 0 1.0 4.0 -1 7
- 1.222512 1 0 ping 64 ------- 0 1.0 4.0 -1 7
r 1.234768 1 0 ping 64 ------- 0 1.0 4.0 -1 7
+ 1.234768 0 4 ping 64 ------- 0 1.0 4.0 -1 7
- 1.234768 0 4 ping 64 ------- 0 1.0 4.0 -1 7
r 1.245024 0 4 ping 64 ------- 0 1.0 4.0 -1 7
+ 1.6 5 0 ping 64 ------- 0 5.0 2.0 -1 8
- 1.6 5 0 ping 64 ------- 0 5.0 2.0 -1 8
r 1.611256 5 0 ping 64 ------- 0 5.0 2.0 -1 8
+ 1.611256 0 2 ping 64 ------- 0 5.0 2.0 -1 8
- 1.611256 0 2 ping 64 ------- 0 5.0 2.0 -1 8
r 1.621512 0 2 ping 64 ------- 0 5.0 2.0 -1 8
+ 1.621512 2 0 ping 64 ------- 0 2.0 5.0 -1 9
- 1.621512 2 0 ping 64 ------- 0 2.0 5.0 -1 9
r 1.631768 2 0 ping 64 ------- 0 2.0 5.0 -1 9
+ 1.631768 0 5 ping 64 ------- 0 2.0 5.0 -1 9
- 1.631768 0 5 ping 64 ------- 0 2.0 5.0 -1 9
r 1.643024 0 5 ping 64 ------- 0 2.0 5.0 -1 9
+ 2 6 0 ping 64 ------- 0 6.0 3.0 -1 10
- 2 6 0 ping 64 ------- 0 6.0 3.0 -1 10
r 2.010256 6 0 ping 64 ------- 0 6.0 3.0 -1 10
+ 2.010256 0 3 ping 64 ------- 0 6.0 3.0 -1 10
- 2.010256 0 3 ping 64 ------- 0 6.0 3.0 -1 10
r 2.020512 0 3 ping 64 ------- 0 6.0 3.0 -1 10
+ 2.020512 3 0 ping 64 ------- 0 3.0 6.0 -1 11
- 2.020512 3 0 ping 64 ------- 0 3.0 6.0 -1 11
r 2.030768 3 0 ping 64 ------- 0 3.0 6.0 -1 11
+ 2.030768 0 6 ping 64 ------- 0 3.0 6.0 -1 11
- 2.030768 0 6 ping 64 ------- 0 3.0 6.0 -1 11
r 2.041024 0 6 ping 64 ------- 0 3.0 6.0 -1 11
